/*--------------------------------*- C++ -*----------------------------------*\
  =========                 |
  \\      /  F ield         | OpenFOAM: The Open Source CFD Toolbox
   \\    /   O peration     | Website:  https://openfoam.org
    \\  /    A nd           | Version:  6
     \\/     M anipulation  |
\*---------------------------------------------------------------------------*/
FoamFile
{
    version     2.0;
    format      ascii;
    class       volScalarField;
    location    "0/silicaGel";
    object      cellToRegion;
}
// * * * * * * * * * * * * * * * * * * * * * * * * * * * * * * * * * * * * * //

dimensions      [0 0 0 0 0 0 0];

internalField   uniform 4;

boundaryField
{
    walls
    {
        type            zeroGradient;
    }
    back
    {
        type            symmetry;
    }
    silicaGel_to_topCoolant
    {
        type            calculated;
        value           uniform 0;
    }
    silicaGel_to_bottomCoolant
    {
        type            calculated;
        value           uniform 0;
    }
    silicaGel_to_batteries
    {
        type            calculated;
        value           uniform 0;
    }
    silicaGel_to_Air
    {
        type            calculated;
        value           uniform 0;
    }
}


// ************************************************************************* //
