/*--------------------------------*- C++ -*----------------------------------*\
  =========                 |
  \\      /  F ield         | OpenFOAM: The Open Source CFD Toolbox
   \\    /   O peration     | Website:  https://openfoam.org
    \\  /    A nd           | Version:  11
     \\/     M anipulation  |
\*---------------------------------------------------------------------------*/
FoamFile
{
    format      ascii;
    class       volScalarField;
    location    "50/Air";
    object      p_rgh;
}
// * * * * * * * * * * * * * * * * * * * * * * * * * * * * * * * * * * * * * //

dimensions      [1 -1 -2 0 0 0 0];

internalField   nonuniform List<scalar> 
124340
(
-8.5356145e-12
-6.54581e-08
-1.0921583e-07
-7.1246603e-08
-1.5066553e-07
-4.2261667e-08
-1.6034246e-07
-4.4647886e-08
-1.4592706e-07
-7.4677854e-08
-1.3313702e-07
-1.0642052e-07
-1.3443965e-07
-1.345798e-07
-1.4633034e-07
-1.5654773e-07
-1.6331457e-07
-1.7116936e-07
-1.7527737e-07
-1.7872759e-07
-1.7970113e-07
-1.8002063e-07
-1.7877321e-07
-1.7713283e-07
-1.7490654e-07
-1.7249017e-07
-1.7013354e-07
-1.6822522e-07
-1.665713e-07
-1.6638329e-07
-1.6665805e-07
-1.6946882e-07
-1.7285827e-07
-1.7963814e-07
-1.8587962e-07
-1.9507771e-07
-2.0852332e-07
-2.0723718e-07
-2.3883692e-07
-2.0796416e-07
-2.7366783e-07
-1.9683194e-07
-3.0060237e-07
-1.8513436e-07
-3.0135888e-07
-1.9632503e-07
-2.7479485e-07
-2.391422e-07
-2.8249108e-07
-3.4760308e-07
-2.2464651e-09
-7.2901783e-08
-1.1551332e-07
-7.0572899e-08
-1.5894949e-07
-3.6203431e-08
-1.6970227e-07
-4.1349124e-08
-1.5102172e-07
-7.6719782e-08
-1.3473813e-07
-1.1072109e-07
-1.340377e-07
-1.354787e-07
-1.4400249e-07
-1.5405062e-07
-1.6003184e-07
-1.6884937e-07
-1.7284257e-07
-1.7697732e-07
-1.7832026e-07
-1.7908388e-07
-1.7810205e-07
-1.7673508e-07
-1.747287e-07
-1.725204e-07
-1.7037802e-07
-1.687156e-07
-1.6731544e-07
-1.6753275e-07
-1.6810018e-07
-1.7155115e-07
-1.7497875e-07
-1.8264193e-07
-1.8790575e-07
-1.9764299e-07
-2.0777145e-07
-2.0760231e-07
-2.3674804e-07
-2.0553644e-07
-2.741587e-07
-1.9074126e-07
-3.0571039e-07
-1.7639275e-07
-3.0749345e-07
-1.8835556e-07
-2.7577915e-07
-2.3311376e-07
-2.7544178e-07
-3.4612909e-07
1.2288916e-08
-6.9476203e-08
-1.1683526e-07
-6.6565055e-08
-1.6522823e-07
-3.2011463e-08
-1.7693322e-07
-4.0509695e-08
-1.5467925e-07
-8.0542673e-08
-1.3704421e-07
-1.132364e-07
-1.3534782e-07
-1.3543064e-07
-1.4257964e-07
-1.5175553e-07
-1.5701337e-07
-1.6602342e-07
-1.6977378e-07
-1.7457727e-07
-1.7632386e-07
-1.7762285e-07
-1.7704464e-07
-1.7608525e-07
-1.7445852e-07
-1.7261207e-07
-1.7084253e-07
-1.6958858e-07
-1.6857066e-07
-1.6929464e-07
-1.7020599e-07
-1.7422246e-07
-1.775231e-07
-1.8568736e-07
-1.9016937e-07
-1.9911649e-07
-2.0788994e-07
-2.0706469e-07
-2.3410005e-07
-2.0339693e-07
-2.7311068e-07
-1.8598051e-07
-3.0792844e-07
-1.6810529e-07
-3.1332528e-07
-1.8227297e-07
-2.805058e-07
-2.3192338e-07
-2.7896611e-07
-3.6075714e-07
1.9935912e-08
-7.064319e-08
-1.1912498e-07
-6.5702158e-08
-1.7049511e-07
-2.9829916e-08
-1.8274145e-07
-4.0518733e-08
-1.584387e-07
-8.3168076e-08
-1.3947216e-07
-1.1474222e-07
-1.3683395e-07
-1.3550625e-07
-1.4224864e-07
-1.5029807e-07
-1.5502045e-07
-1.6361092e-07
-1.6747574e-07
-1.723875e-07
-1.7442327e-07
-1.7611204e-07
-1.7593082e-07
-1.7538217e-07
-1.7416537e-07
-1.7272798e-07
-1.7137029e-07
-1.7053881e-07
-1.6991767e-07
-1.7104186e-07
-1.7227612e-07
-1.7654928e-07
-1.797079e-07
-1.8768095e-07
-1.9175674e-07
-1.9962406e-07
-2.0802145e-07
-2.0603624e-07
-2.3295648e-07
-2.0192941e-07
-2.7089613e-07
-1.8174891e-07
-3.0893363e-07
-1.6207021e-07
-3.1601758e-07
-1.7697304e-07
-2.8007675e-07
-2.2948818e-07
-2.7771474e-07
-3.6829069e-07
2.1590058e-08
-7.2361989e-08
-1.2080215e-07
-6.5956916e-08
-1.749239e-07
-2.8433296e-08
-1.8774096e-07
-4.0497754e-08
-1.622863e-07
-8.4191111e-08
-1.4218254e-07
-1.1548327e-07
-1.383205e-07
-1.3559149e-07
-1.4271964e-07
-1.4957734e-07
-1.5398533e-07
-1.6193824e-07
-1.6572499e-07
-1.7058192e-07
-1.7278538e-07
-1.7471331e-07
-1.7488202e-07
-1.7469974e-07
-1.7388058e-07
-1.7284867e-07
-1.7189388e-07
-1.7144041e-07
-1.7119425e-07
-1.726042e-07
-1.7411474e-07
-1.7853588e-07
-1.8115489e-07
-1.8880947e-07
-1.9275338e-07
-1.9943124e-07
-2.082217e-07
-2.046873e-07
-2.3241029e-07
-1.9885325e-07
-2.699745e-07
-1.7824856e-07
-3.0980788e-07
-1.5693641e-07
-3.175279e-07
-1.7260752e-07
-2.7949959e-07
-2.2785308e-07
-2.7582906e-07
-3.6973819e-07
1.9710587e-08
-7.49463e-08
-1.2318187e-07
-6.7164873e-08
-1.7903114e-07
-2.7560359e-08
-1.9212802e-07
-4.0491593e-08
-1.6644905e-07
-8.4849653e-08
-1.4502557e-07
-1.1569363e-07
-1.3989064e-07
-1.3567767e-07
-1.4362572e-07
-1.4928795e-07
-1.5358144e-07
-1.6079727e-07
-1.6443965e-07
-1.6907961e-07
-1.7137876e-07
-1.7344313e-07
-1.7391684e-07
-1.7405628e-07
-1.7361219e-07
-1.7296869e-07
-1.723978e-07
-1.7228484e-07
-1.7237438e-07
-1.7396803e-07
-1.7564656e-07
-1.7977671e-07
-1.8255939e-07
-1.8942635e-07
-1.9344498e-07
-1.9881051e-07
-2.0847954e-07
-2.0305109e-07
-2.3216437e-07
-1.945639e-07
-2.710538e-07
-1.7434861e-07
-3.1065433e-07
-1.5211604e-07
-3.1823959e-07
-1.6860483e-07
-2.7910737e-07
-2.2520775e-07
-2.7284703e-07
-3.6752545e-07
1.648666e-08
-7.8334863e-08
-1.2643356e-07
-6.8292838e-08
-1.8275959e-07
-2.7044868e-08
-1.9562881e-07
-4.1129317e-08
-1.7102977e-07
-8.5287609e-08
-1.4781063e-07
-1.1555745e-07
-1.4161338e-07
-1.3574459e-07
-1.4474456e-07
-1.4916105e-07
-1.5354072e-07
-1.5998579e-07
-1.6346109e-07
-1.6784097e-07
-1.7016967e-07
-1.722989e-07
-1.7303865e-07
-1.7346033e-07
-1.7336384e-07
-1.7308511e-07
-1.7287266e-07
-1.7306407e-07
-1.7345322e-07
-1.7515826e-07
-1.7694927e-07
-1.8082618e-07
-1.83642e-07
-1.8972666e-07
-1.9401251e-07
-1.9797734e-07
-2.088146e-07
-2.0118726e-07
-2.3236853e-07
-1.9101822e-07
-2.7201159e-07
-1.6994786e-07
-3.1110199e-07
-1.4728687e-07
-3.1814244e-07
-1.6446247e-07
-2.7787969e-07
-2.218629e-07
-2.6920383e-07
-3.639902e-07
1.2686073e-08
-8.1962638e-08
-1.2998961e-07
-6.9621612e-08
-1.8639043e-07
-2.7101505e-08
-1.9905989e-07
-4.1859157e-08
-1.7543929e-07
-8.4530989e-08
-1.5170697e-07
-1.1541906e-07
-1.4353703e-07
-1.3583253e-07
-1.4593944e-07
-1.4911647e-07
-1.5369585e-07
-1.5936493e-07
-1.6266584e-07
-1.6685697e-07
-1.6914495e-07
-1.7128001e-07
-1.7225035e-07
-1.7291914e-07
-1.7313876e-07
-1.7319552e-07
-1.733109e-07
-1.7377282e-07
-1.7442987e-07
-1.7620517e-07
-1.7808881e-07
-1.8169639e-07
-1.8451531e-07
-1.8984021e-07
-1.9450331e-07
-1.9704836e-07
-2.0923411e-07
-1.9911553e-07
-2.3288372e-07
-1.8755876e-07
-2.7306453e-07
-1.6519453e-07
-3.111375e-07
-1.4248287e-07
-3.1732352e-07
-1.6021874e-07
-2.7605666e-07
-2.1812014e-07
-2.6537343e-07
-3.5994952e-07
8.6691343e-09
-8.5624e-08
-1.3367735e-07
-7.1513968e-08
-1.901314e-07
-2.7905148e-08
-2.0307295e-07
-4.2128875e-08
-1.8000406e-07
-8.4239188e-08
-1.5497307e-07
-1.1497753e-07
-1.4557763e-07
-1.3588365e-07
-1.4715448e-07
-1.490935e-07
-1.5398662e-07
-1.5888944e-07
-1.6211688e-07
-1.6595753e-07
-1.6825889e-07
-1.7038256e-07
-1.7155431e-07
-1.7243825e-07
-1.729394e-07
-1.732978e-07
-1.7370677e-07
-1.7440739e-07
-1.7530216e-07
-1.7712e-07
-1.7905812e-07
-1.8243871e-07
-1.8526075e-07
-1.8979708e-07
-1.9497808e-07
-1.9603645e-07
-2.0972342e-07
-1.968461e-07
-2.3357435e-07
-1.838436e-07
-2.7384645e-07
-1.6002551e-07
-3.112386e-07
-1.380133e-07
-3.1605509e-07
-1.5607541e-07
-2.7374862e-07
-2.1424394e-07
-2.6153352e-07
-3.5575766e-07
4.718266e-09
-8.9204364e-08
-1.373766e-07
-7.3851361e-08
-1.9399799e-07
-2.941396e-08
-2.0762555e-07
-4.1669538e-08
-1.8422947e-07
-8.261802e-08
-1.5948534e-07
-1.1477303e-07
-1.4781893e-07
-1.3590299e-07
-1.4839777e-07
-1.4908701e-07
-1.5433969e-07
-1.5851743e-07
-1.616793e-07
-1.6520638e-07
-1.6750452e-07
-1.6960911e-07
-1.7095147e-07
-1.7201977e-07
-1.7276635e-07
-1.7338996e-07
-1.7405647e-07
-1.7496555e-07
-1.7606793e-07
-1.7790954e-07
-1.7984033e-07
-1.8309059e-07
-1.8591052e-07
-1.8967106e-07
-1.9541204e-07
-1.9491468e-07
-2.1016099e-07
-1.9433074e-07
-2.3423689e-07
-1.7976044e-07
-2.7426807e-07
-1.5473055e-07
-3.1133234e-07
-1.3386821e-07
-3.1444627e-07
-1.5207695e-07
-2.7113258e-07
-2.1037856e-07
-2.577647e-07
-3.516173e-07
8.9150901e-10
-9.2686233e-08
-1.4100458e-07
-7.6510946e-08
-1.9790255e-07
-3.1468285e-08
-2.1252212e-07
-4.0575175e-08
-1.8822399e-07
-8.0312079e-08
-1.6472305e-07
-1.1477526e-07
-1.5028128e-07
-1.3591761e-07
-1.4969211e-07
-1.490995e-07
-1.547395e-07
-1.58211e-07
-1.6134254e-07
-1.6459736e-07
-1.6686154e-07
-1.6895636e-07
-1.7043912e-07
-1.7166247e-07
-1.7261855e-07
-1.7347035e-07
-1.7435807e-07
-1.7544538e-07
-1.7671982e-07
-1.7857195e-07
-1.8056074e-07
-1.8356344e-07
-1.8648944e-07
-1.8945168e-07
-1.9579941e-07
-1.9368999e-07
-2.1065424e-07
-1.9153921e-07
-2.3503374e-07
-1.7543163e-07
-2.747675e-07
-1.4965519e-07
-3.1088626e-07
-1.2985058e-07
-3.1251255e-07
-1.4819333e-07
-2.6828304e-07
-2.0653337e-07
-2.5407914e-07
-3.4761684e-07
-2.7946265e-09
-9.6079282e-08
-1.4451497e-07
-7.9308812e-08
-2.0167894e-07
-3.382126e-08
-2.1744679e-07
-3.9830049e-08
-1.9230913e-07
-7.8856643e-08
-1.6891179e-07
-1.1447171e-07
-1.5289164e-07
-1.3588788e-07
-1.510348e-07
-1.4912337e-07
-1.5517473e-07
-1.5797227e-07
-1.6109056e-07
-1.6409546e-07
-1.6635706e-07
-1.6842391e-07
-1.7001157e-07
-1.7136223e-07
-1.724938e-07
-1.7353802e-07
-1.7461193e-07
-1.7584856e-07
-1.7726282e-07
-1.7912913e-07
-1.8114497e-07
-1.8391068e-07
-1.8697738e-07
-1.8915485e-07
-1.9614033e-07
-1.9235135e-07
-2.1113093e-07
-1.8835323e-07
-2.3628489e-07
-1.7100718e-07
-2.7542639e-07
-1.4458812e-07
-3.1006912e-07
-1.2600836e-07
-3.1031607e-07
-1.444252e-07
-2.6525292e-07
-2.0274062e-07
-2.5048742e-07
-3.4378548e-07
-6.3465477e-09
-9.9411305e-08
-1.4796322e-07
-8.2169115e-08
-2.0523018e-07
-3.6169867e-08
-2.2153917e-07
-3.9583831e-08
-1.9702071e-07
-7.7624376e-08
-1.7305373e-07
-1.1388602e-07
-1.5571884e-07
-1.3580318e-07
-1.5244053e-07
-1.4915896e-07
-1.5564247e-07
-1.5779677e-07
-1.609355e-07
-1.6371753e-07
-1.6594258e-07
-1.6800935e-07
-1.6966253e-07
-1.7111465e-07
-1.7238978e-07
-1.7359255e-07
-1.7481977e-07
-1.7617883e-07
-1.7770404e-07
-1.7960636e-07
-1.8156956e-07
-1.8413843e-07
-1.8737353e-07
-1.887745e-07
-1.9642934e-07
-1.9088568e-07
-2.11501e-07
-1.8449638e-07
-2.3839768e-07
-1.6656467e-07
-2.7628237e-07
-1.3958452e-07
-3.0883248e-07
-1.2232409e-07
-3.0792295e-07
-1.4082754e-07
-2.6219963e-07
-1.9909799e-07
-2.4702277e-07
-3.4013715e-07
-9.7611278e-09
-1.0267025e-07
-1.5131867e-07
-8.5027083e-08
-2.0853698e-07
-3.8463454e-08
-2.2496393e-07
-3.931382e-08
-2.0249223e-07
-7.6524681e-08
-1.7745113e-07
-1.132614e-07
-1.5851415e-07
-1.3558383e-07
-1.5385365e-07
-1.4921061e-07
-1.561514e-07
-1.5768981e-07
-1.6086836e-07
-1.6345241e-07
-1.6564622e-07
-1.6766267e-07
-1.6937969e-07
-1.7091433e-07
-1.7230391e-07
-1.7363369e-07
-1.7498331e-07
-1.7643868e-07
-1.7804064e-07
-1.7992294e-07
-1.8194948e-07
-1.8426426e-07
-1.8767149e-07
-1.8831137e-07
-1.966783e-07
-1.8938368e-07
-2.1193143e-07
-1.8161736e-07
-2.3995254e-07
-1.6231872e-07
-2.7674559e-07
-1.3460636e-07
-3.0725151e-07
-1.1889494e-07
-3.0546015e-07
-1.3748146e-07
-2.5932665e-07
-1.9570396e-07
-2.4371992e-07
-3.3667875e-07
-1.302232e-08
-1.0581997e-07
-1.5454081e-07
-8.7878478e-08
-2.1165133e-07
-4.0803182e-08
-2.2815758e-07
-3.9889157e-08
-2.0808347e-07
-7.4947376e-08
-1.8169782e-07
-1.1253073e-07
-1.6130586e-07
-1.3530384e-07
-1.5531326e-07
-1.4928327e-07
-1.567113e-07
-1.576507e-07
-1.6088372e-07
-1.6327564e-07
-1.6542288e-07
-1.6741058e-07
-1.6915955e-07
-1.7075646e-07
-1.7223459e-07
-1.7366261e-07
-1.7510661e-07
-1.7663534e-07
-1.7829112e-07
-1.8017077e-07
-1.8220676e-07
-1.8429132e-07
-1.8787468e-07
-1.8777021e-07
-1.9688084e-07
-1.8777311e-07
-2.1247003e-07
-1.7879774e-07
-2.4064413e-07
-1.5844557e-07
-2.7707902e-07
-1.3027711e-07
-3.0554841e-07
-1.1579087e-07
-3.0302278e-07
-1.3438335e-07
-2.5660087e-07
-1.925438e-07
-2.4057926e-07
-3.3340389e-07
-1.6110925e-08
-1.0882311e-07
-1.5758305e-07
-9.0681885e-08
-2.1460322e-07
-4.3207753e-08
-2.3120621e-07
-4.1104259e-08
-2.1350289e-07
-7.3141601e-08
-1.8533478e-07
-1.1018607e-07
-1.6552504e-07
-1.3535106e-07
-1.5686085e-07
-1.4937553e-07
-1.5732377e-07
-1.5767305e-07
-1.6097237e-07
-1.6317653e-07
-1.6527163e-07
-1.6723011e-07
-1.6900044e-07
-1.7063705e-07
-1.7217894e-07
-1.7367999e-07
-1.7519395e-07
-1.7677547e-07
-1.7846448e-07
-1.8033547e-07
-1.8236783e-07
-1.8422976e-07
-1.8799136e-07
-1.8716365e-07
-1.9704283e-07
-1.8605296e-07
-2.1315512e-07
-1.7587356e-07
-2.4116937e-07
-1.547602e-07
-2.770676e-07
-1.2651066e-07
-3.0368216e-07
-1.1294745e-07
-3.0063959e-07
-1.3149189e-07
-2.5397005e-07
-1.8956629e-07
-2.3758589e-07
-3.3030123e-07
-1.9016329e-08
-1.1165421e-07
-1.6040067e-07
-9.3303537e-08
-2.1737261e-07
-4.5605455e-08
-2.3401423e-07
-4.2705119e-08
-2.1826033e-07
-7.1927679e-08
-1.8902393e-07
-1.088598e-07
-1.6852121e-07
-1.3522736e-07
-1.5842789e-07
-1.4946878e-07
-1.5798533e-07
-1.5774928e-07
-1.611251e-07
-1.6314514e-07
-1.6518758e-07
-1.6711537e-07
-1.6888916e-07
-1.7055153e-07
-1.7213459e-07
-1.7368675e-07
-1.7524895e-07
-1.7686469e-07
-1.7856866e-07
-1.80423e-07
-1.8244621e-07
-1.8408878e-07
-1.8802876e-07
-1.86499e-07
-1.971649e-07
-1.8436931e-07
-2.1406089e-07
-1.7274047e-07
-2.4145503e-07
-1.5101753e-07
-2.7684259e-07
-1.2337074e-07
-3.0174246e-07
-1.1030747e-07
-2.9831128e-07
-1.2877541e-07
-2.5143659e-07
-1.8675139e-07
-2.3473631e-07
-3.2736554e-07
-2.1744076e-08
-1.1431963e-07
-1.6302564e-07
-9.5785921e-08
-2.1997475e-07
-4.7952197e-08
-2.3661183e-07
-4.4548239e-08
-2.2225482e-07
-7.1651864e-08
-1.9292028e-07
-1.073929e-07
-1.710847e-07
-1.3492997e-07
-1.600443e-07
-1.4956442e-07
-1.5870141e-07
-1.5787391e-07
-1.6133478e-07
-1.631715e-07
-1.6516308e-07
-1.6705597e-07
-1.6882009e-07
-1.7049214e-07
-1.7210198e-07
-1.7368453e-07
-1.752751e-07
-1.7690855e-07
-1.7861384e-07
-1.8044269e-07
-1.8245247e-07
-1.8387906e-07
-1.8799629e-07
-1.8576318e-07
-1.9715626e-07
-1.8260786e-07
-2.1457365e-07
-1.7027544e-07
-2.4176329e-07
-1.4744917e-07
-2.761472e-07
-1.2064808e-07
-2.9977223e-07
-1.0782734e-07
-2.9603466e-07
-1.2621539e-07
-2.4903794e-07
-1.8410191e-07
-2.3203684e-07
-3.2459768e-07
-2.4309314e-08
-1.1683806e-07
-1.6549943e-07
-9.815972e-08
-2.2242502e-07
-5.0225128e-08
-2.3902614e-07
-4.6436441e-08
-2.2531905e-07
-7.1461442e-08
-1.967025e-07
-1.0671853e-07
-1.7366532e-07
-1.3446021e-07
-1.6179137e-07
-1.4966914e-07
-1.594319e-07
-1.5803651e-07
-1.6159368e-07
-1.6324649e-07
-1.6519016e-07
-1.6704336e-07
-1.6878743e-07
-1.7045675e-07
-1.7207652e-07
-1.7367371e-07
-1.7527717e-07
-1.7691403e-07
-1.7860768e-07
-1.8040342e-07
-1.8239715e-07
-1.8361249e-07
-1.8790785e-07
-1.8499798e-07
-1.9714009e-07
-1.8109822e-07
-2.1467497e-07
-1.6811702e-07
-2.4202707e-07
-1.4412936e-07
-2.7508394e-07
-1.182183e-07
-2.9780357e-07
-1.054829e-07
-2.9380794e-07
-1.2377898e-07
-2.4672381e-07
-1.8160365e-07
-2.2949064e-07
-3.2199835e-07
-2.6727023e-08
-1.1922429e-07
-1.6785054e-07
-1.0044247e-07
-2.2474108e-07
-5.2415215e-08
-2.4128277e-07
-4.8315508e-08
-2.2783343e-07
-7.181852e-08
-2.0008306e-07
-1.0632903e-07
-1.763389e-07
-1.3404241e-07
-1.6336908e-07
-1.4972739e-07
-1.6017277e-07
-1.5822906e-07
-1.6189415e-07
-1.6336189e-07
-1.6526119e-07
-1.6707001e-07
-1.6878541e-07
-1.7044119e-07
-1.7205763e-07
-1.7365566e-07
-1.7525833e-07
-1.7688678e-07
-1.7855828e-07
-1.8031389e-07
-1.8229002e-07
-1.8330006e-07
-1.8776969e-07
-1.8419482e-07
-1.9716515e-07
-1.7958891e-07
-2.1460063e-07
-1.6595452e-07
-2.420731e-07
-1.4130626e-07
-2.7388202e-07
-1.1608045e-07
-2.9588879e-07
-1.0326613e-07
-2.9163909e-07
-1.2145301e-07
-2.444925e-07
-1.7925343e-07
-2.2709898e-07
-3.1956505e-07
-2.9006892e-08
-1.2147917e-07
-1.7007674e-07
-1.0265131e-07
-2.2694729e-07
-5.4517072e-08
-2.4339724e-07
-5.016328e-08
-2.3003459e-07
-7.2617857e-08
-2.0321809e-07
-1.0593737e-07
-1.7892547e-07
-1.3311564e-07
-1.6520361e-07
-1.4992119e-07
-1.6093884e-07
-1.5844349e-07
-1.6222859e-07
-1.635101e-07
-1.65369e-07
-1.671292e-07
-1.6880886e-07
-1.70442e-07
-1.7204419e-07
-1.7363143e-07
-1.7522193e-07
-1.7683185e-07
-1.7847284e-07
-1.8018197e-07
-1.8213934e-07
-1.8295097e-07
-1.875896e-07
-1.8343002e-07
-1.9722941e-07
-1.7802494e-07
-2.1448347e-07
-1.6397346e-07
-2.4180101e-07
-1.3886537e-07
-2.7252406e-07
-1.1413699e-07
-2.9404269e-07
-1.0117373e-07
-2.8954778e-07
-1.1924635e-07
-2.4236519e-07
-1.7704884e-07
-2.2485717e-07
-3.1728962e-07
-3.1158249e-08
-1.2361089e-07
-1.7218493e-07
-1.0475891e-07
-2.2903555e-07
-5.6517498e-08
-2.4536979e-07
-5.1926201e-08
-2.3194552e-07
-7.3681659e-08
-2.0614541e-07
-1.0576898e-07
-1.8096757e-07
-1.3286496e-07
-1.6661599e-07
-1.5009042e-07
-1.6171855e-07
-1.5867167e-07
-1.6258988e-07
-1.6368438e-07
-1.6550705e-07
-1.6721493e-07
-1.6885319e-07
-1.7045622e-07
-1.7203523e-07
-1.7360211e-07
-1.7517109e-07
-1.767542e-07
-1.7835797e-07
-1.8001503e-07
-1.8195174e-07
-1.8256439e-07
-1.8735354e-07
-1.8259633e-07
-1.97103e-07
-1.7668002e-07
-2.1427197e-07
-1.6192723e-07
-2.414783e-07
-1.3688462e-07
-2.7112104e-07
-1.1233838e-07
-2.9227296e-07
-9.920579e-08
-2.8755424e-07
-1.1716779e-07
-2.4035051e-07
-1.7497989e-07
-2.2275404e-07
-3.1515906e-07
-3.3188762e-08
-1.2562725e-07
-1.7417942e-07
-1.0674509e-07
-2.3099404e-07
-5.8405772e-08
-2.4720777e-07
-5.3595162e-08
-2.336667e-07
-7.4909928e-08
-2.0853488e-07
-1.0583174e-07
-1.8282698e-07
-1.3284804e-07
-1.6796294e-07
-1.5024194e-07
-1.6250306e-07
-1.5890596e-07
-1.6297159e-07
-1.6387904e-07
-1.6566952e-07
-1.6732189e-07
-1.6891433e-07
-1.7048129e-07
-1.7202993e-07
-1.7356872e-07
-1.7510865e-07
-1.7665835e-07
-1.7821968e-07
-1.7981988e-07
-1.8173639e-07
-1.8215837e-07
-1.8707489e-07
-1.8171949e-07
-1.9691933e-07
-1.7543025e-07
-2.1404673e-07
-1.6000673e-07
-2.4092526e-07
-1.3519807e-07
-2.6973484e-07
-1.1066637e-07
-2.9058954e-07
-9.7364506e-08
-2.8567444e-07
-1.1522281e-07
-2.3844793e-07
-1.730332e-07
-2.2077599e-07
-3.1315916e-07
-3.5102261e-08
-1.2753006e-07
-1.7605781e-07
-1.0860533e-07
-2.3282104e-07
-6.017828e-08
-2.4892061e-07
-5.517173e-08
-2.3524715e-07
-7.6175381e-08
-2.104231e-07
-1.0597449e-07
-1.8472129e-07
-1.3294921e-07
-1.6933031e-07
-1.5037523e-07
-1.6328069e-07
-1.5914361e-07
-1.6336961e-07
-1.6408993e-07
-1.658515e-07
-1.6744554e-07
-1.689888e-07
-1.7051503e-07
-1.720276e-07
-1.7353218e-07
-1.7503714e-07
-1.7654833e-07
-1.7806343e-07
-1.7960319e-07
-1.8150102e-07
-1.8173716e-07
-1.8677366e-07
-1.8095697e-07
-1.9660952e-07
-1.7429433e-07
-2.138605e-07
-1.5819163e-07
-2.4017879e-07
-1.3368453e-07
-2.6838553e-07
-1.0911175e-07
-2.8900183e-07
-9.5650852e-08
-2.839179e-07
-1.1341524e-07
-2.3665914e-07
-1.7119245e-07
-2.1891037e-07
-3.1127824e-07
-3.6899863e-08
-1.2931879e-07
-1.7781825e-07
-1.1033845e-07
-2.345193e-07
-6.1835791e-08
-2.505167e-07
-5.6656811e-08
-2.3670726e-07
-7.74103e-08
-2.1196316e-07
-1.0628892e-07
-1.8653696e-07
-1.3311945e-07
-1.7072389e-07
-1.5040536e-07
-1.6408572e-07
-1.5939781e-07
-1.6377683e-07
-1.6431265e-07
-1.6604863e-07
-1.6758197e-07
-1.6907359e-07
-1.7055556e-07
-1.7202767e-07
-1.7349331e-07
-1.7495874e-07
-1.7642761e-07
-1.7789388e-07
-1.7937078e-07
-1.8125174e-07
-1.8130689e-07
-1.8646366e-07
-1.8023927e-07
-1.9624354e-07
-1.7320743e-07
-2.1355599e-07
-1.5653141e-07
-2.3937855e-07
-1.3235467e-07
-2.6710744e-07
-1.0767068e-07
-2.8751428e-07
-9.4060959e-08
-2.8228306e-07
-1.117362e-07
-2.349765e-07
-1.6945837e-07
-2.1715397e-07
-3.0951037e-07
-3.8581713e-08
-1.3099281e-07
-1.7945999e-07
-1.1194176e-07
-2.3609254e-07
-6.3381202e-08
-2.5200277e-07
-5.8050541e-08
-2.3806077e-07
-7.8598629e-08
-2.1330554e-07
-1.0679532e-07
-1.8823757e-07
-1.3328352e-07
-1.7207124e-07
-1.5039407e-07
-1.6489804e-07
-1.5966896e-07
-1.6419151e-07
-1.6454369e-07
-1.6625741e-07
-1.6772779e-07
-1.6916613e-07
-1.7060128e-07
-1.7202967e-07
-1.7345286e-07
-1.7487532e-07
-1.7629913e-07
-1.77715e-07
-1.7912748e-07
-1.809936e-07
-1.8087244e-07
-1.8615152e-07
-1.7954621e-07
-1.9589277e-07
-1.7221437e-07
-2.131104e-07
-1.5503611e-07
-2.3851658e-07
-1.3115432e-07
-2.6590443e-07
-1.0633341e-07
-2.8612435e-07
-9.2586439e-08
-2.8076262e-07
-1.1017546e-07
-2.3339848e-07
-1.6783185e-07
-2.1550639e-07
-3.0785347e-07
-4.0148271e-08
-1.3255286e-07
-1.8098595e-07
-1.1342197e-07
-2.3754782e-07
-6.4819368e-08
-2.5338491e-07
-5.9354041e-08
-2.3931575e-07
-7.9727236e-08
-2.1449881e-07
-1.0745087e-07
-1.8989907e-07
-1.3345429e-07
-1.731371e-07
-1.5056983e-07
-1.6566155e-07
-1.5993627e-07
-1.6460718e-07
-1.6477948e-07
-1.6647447e-07
-1.6787999e-07
-1.6926418e-07
-1.7065084e-07
-1.7203317e-07
-1.7341131e-07
-1.7478842e-07
-1.7616533e-07
-1.7753e-07
-1.7887719e-07
-1.8073073e-07
-1.8043844e-07
-1.8584276e-07
-1.7885716e-07
-1.9551047e-07
-1.7119802e-07
-2.1272652e-07
-1.5375448e-07
-2.3761247e-07
-1.3003086e-07
-2.6476462e-07
-1.0508684e-07
-2.8482561e-07
-9.1217698e-08
-2.7934857e-07
-1.0872501e-07
-2.3192412e-07
-1.6631314e-07
-2.1396788e-07
-3.0630706e-07
-4.1600702e-08
-1.3400044e-07
-1.8240111e-07
-1.1479359e-07
-2.3889496e-07
-6.6156405e-08
-2.5466957e-07
-6.0571201e-08
-2.4048001e-07
-8.0784441e-08
-2.1555942e-07
-1.0816304e-07
-1.9135615e-07
-1.3367761e-07
-1.7412659e-07
-1.5076869e-07
-1.6644191e-07
-1.6022742e-07
-1.6502266e-07
-1.6501622e-07
-1.6669642e-07
-1.6803598e-07
-1.6936587e-07
-1.7070307e-07
-1.7203782e-07
-1.7336916e-07
-1.7469928e-07
-1.7602816e-07
-1.7734139e-07
-1.7862287e-07
-1.8046549e-07
-1.8000772e-07
-1.8554299e-07
-1.7818534e-07
-1.9517195e-07
-1.7030029e-07
-2.1224757e-07
-1.5260006e-07
-2.3670287e-07
-1.2897044e-07
-2.6368372e-07
-1.0392194e-07
-2.8361188e-07
-8.9946437e-08
-2.7803396e-07
-1.0737888e-07
-2.3055163e-07
-1.6490185e-07
-2.1253831e-07
-3.0487085e-07
-4.2940816e-08
-1.3533753e-07
-1.837092e-07
-1.1606463e-07
-2.4014151e-07
-6.7398347e-08
-2.558632e-07
-6.1708453e-08
-2.4156526e-07
-8.178296e-08
-2.1654654e-07
-1.089433e-07
-1.9263611e-07
-1.3401509e-07
-1.7499986e-07
-1.5102292e-07
-1.6710609e-07
-1.6050547e-07
-1.654327e-07
-1.6525101e-07
-1.6692069e-07
-1.6819368e-07
-1.6946969e-07
-1.7075708e-07
-1.7204335e-07
-1.7332681e-07
-1.7460892e-07
-1.7588914e-07
-1.7715108e-07
-1.7836649e-07
-1.8019834e-07
-1.795833e-07
-1.8527229e-07
-1.7749808e-07
-1.9477431e-07
-1.6932818e-07
-2.1186649e-07
-1.516357e-07
-2.3584183e-07
-1.2797772e-07
-2.6266291e-07
-1.028338e-07
-2.8247843e-07
-8.8766454e-08
-2.768132e-07
-1.0613274e-07
-2.2927869e-07
-1.6359691e-07
-2.112168e-07
-3.0354411e-07
-4.4170783e-08
-1.365665e-07
-1.8491312e-07
-1.172402e-07
-2.4129265e-07
-6.8550636e-08
-2.5697113e-07
-6.2771961e-08
-2.4258062e-07
-8.2732323e-08
-2.1748315e-07
-1.0973997e-07
-1.9372044e-07
-1.343131e-07
-1.7588416e-07
-1.5130322e-07
-1.6773423e-07
-1.6077101e-07
-1.6583567e-07
-1.6548231e-07
-1.6714575e-07
-1.6835159e-07
-1.6957452e-07
-1.7081216e-07
-1.7204957e-07
-1.7328459e-07
-1.7451816e-07
-1.7574948e-07
-1.7696047e-07
-1.7810947e-07
-1.7993165e-07
-1.7917723e-07
-1.8499145e-07
-1.7682662e-07
-1.9438317e-07
-1.6845063e-07
-2.1142042e-07
-1.5076007e-07
-2.3502647e-07
-1.2705189e-07
-2.6170318e-07
-1.0181961e-07
-2.8142155e-07
-8.7673344e-08
-2.7568167e-07
-1.0498354e-07
-2.2810274e-07
-1.623969e-07
-2.100019e-07
-3.023257e-07
-4.5292723e-08
-1.3768977e-07
-1.8601507e-07
-1.1832443e-07
-2.4235177e-07
-6.9618127e-08
-2.5799707e-07
-6.376625e-08
-2.4352978e-07
-8.3632396e-08
-2.183643e-07
-1.1051422e-07
-1.9467401e-07
-1.3466503e-07
-1.7670125e-07
-1.5156361e-07
-1.6834054e-07
-1.6102736e-07
-1.6623195e-07
-1.6570959e-07
-1.6737013e-07
-1.685086e-07
-1.6967951e-07
-1.7086779e-07
-1.7205635e-07
-1.7324279e-07
-1.744277e-07
-1.7561015e-07
-1.7677074e-07
-1.7785285e-07
-1.7966506e-07
-1.7877445e-07
-1.8466483e-07
-1.7621245e-07
-1.9401165e-07
-1.6762383e-07
-2.1095668e-07
-1.499565e-07
-2.3425681e-07
-1.2619133e-07
-2.6080395e-07
-1.0087723e-07
-2.8043757e-07
-8.666392e-08
-2.7463507e-07
-1.0392918e-07
-2.2702089e-07
-1.6130042e-07
-2.0889189e-07
-3.0121446e-07
-4.6308197e-08
-1.387095e-07
-1.8701654e-07
-1.1932142e-07
-2.4332095e-07
-7.0605535e-08
-2.589432e-07
-6.4695068e-08
-2.4441351e-07
-8.4481197e-08
-2.1918328e-07
-1.112372e-07
-1.954736e-07
-1.3494626e-07
-1.775711e-07
-1.5186273e-07
-1.6894578e-07
-1.6127406e-07
-1.6662145e-07
-1.6593236e-07
-1.6759202e-07
-1.6866378e-07
-1.69784e-07
-1.7092359e-07
-1.7206364e-07
-1.7320173e-07
-1.7433815e-07
-1.7547207e-07
-1.7658301e-07
-1.7759817e-07
-1.7940127e-07
-1.7837514e-07
-1.8433063e-07
-1.7562746e-07
-1.9366327e-07
-1.6683069e-07
-2.1048901e-07
-1.4921249e-07
-2.335283e-07
-1.2539266e-07
-2.5996286e-07
-1.000047e-07
-2.7952213e-07
-8.5735813e-08
-2.7366876e-07
-1.0296829e-07
-2.2602992e-07
-1.603065e-07
-2.0788519e-07
-3.0020967e-07
-4.7217721e-08
-1.3962732e-07
-1.8791814e-07
-1.2023566e-07
-2.4420118e-07
-7.1518166e-08
-2.5981058e-07
-6.5562849e-08
-2.4523191e-07
-8.5279832e-08
-2.1994075e-07
-1.1191763e-07
-1.9619646e-07
-1.3529134e-07
-1.7835511e-07
-1.5215118e-07
-1.6954786e-07
-1.6150541e-07
-1.6700058e-07
-1.6615043e-07
-1.6781092e-07
-1.6881652e-07
-1.6988753e-07
-1.709793e-07
-1.7207146e-07
-1.7316171e-07
-1.7425014e-07
-1.7533609e-07
-1.7639836e-07
-1.7734669e-07
-1.7914069e-07
-1.7798498e-07
-1.8399764e-07
-1.7507311e-07
-1.9333716e-07
-1.6606563e-07
-2.1001177e-07
-1.4852e-07
-2.3283722e-07
-1.2465257e-07
-2.5917564e-07
-9.9200168e-08
-2.7866955e-07
-8.488732e-08
-2.7277717e-07
-1.0210018e-07
-2.2512601e-07
-1.5941487e-07
-2.0698073e-07
-2.9931152e-07
-4.8020226e-08
-1.4044402e-07
-1.8871926e-07
-1.2107254e-07
-2.4499244e-07
-7.2362798e-08
-2.6059928e-07
-6.63759e-08
-2.4598488e-07
-8.603246e-08
-2.2063909e-07
-1.1256325e-07
-1.9685637e-07
-1.3565781e-07
-1.7909878e-07
-1.5243504e-07
-1.7015301e-07
-1.61704e-07
-1.6736628e-07
-1.6636479e-07
-1.6802629e-07
-1.6896636e-07
-1.6998972e-07
-1.710347e-07
-1.7207982e-07
-1.7312305e-07
-1.7416427e-07
-1.7520309e-07
-1.7621789e-07
-1.7709995e-07
-1.7888563e-07
-1.7760835e-07
-1.8367061e-07
-1.7455797e-07
-1.9300891e-07
-1.6530702e-07
-2.0953147e-07
-1.4789055e-07
-2.3218734e-07
-1.2397016e-07
-2.5843599e-07
-9.8461922e-08
-2.7787201e-07
-8.4117506e-08
-2.7195311e-07
-1.0132514e-07
-2.243045e-07
-1.5862632e-07
-2.0617811e-07
-2.9852163e-07
-4.8712628e-08
-1.4115941e-07
-1.8941797e-07
-1.2183863e-07
-2.4569348e-07
-7.3148633e-08
-2.6130813e-07
-6.7143422e-08
-2.4667176e-07
-8.6746427e-08
-2.2128149e-07
-1.1318443e-07
-1.9746968e-07
-1.3604651e-07
-1.7980947e-07
-1.5270613e-07
-1.7072743e-07
-1.6191326e-07
-1.6770646e-07
-1.6657403e-07
-1.6823771e-07
-1.6911284e-07
-1.7009019e-07
-1.7108957e-07
-1.7208874e-07
-1.7308604e-07
-1.7408116e-07
-1.7507396e-07
-1.7604274e-07
-1.7685935e-07
-1.7863559e-07
-1.7723344e-07
-1.8335212e-07
-1.7405242e-07
-1.9265663e-07
-1.6460726e-07
-2.0905967e-07
-1.4731997e-07
-2.3157407e-07
-1.233432e-07
-2.5773407e-07
-9.7788544e-08
-2.7711866e-07
-8.3426578e-08
-2.7118702e-07
-1.0064481e-07
-2.2355946e-07
-1.5794299e-07
-2.0547791e-07
-2.9784353e-07
-4.9289487e-08
-1.4177217e-07
-1.9001098e-07
-1.2254248e-07
-2.4630145e-07
-7.3888335e-08
-2.6193413e-07
-6.7878744e-08
-2.4729069e-07
-8.7432559e-08
-2.2186701e-07
-1.1378178e-07
-1.9802321e-07
-1.3644803e-07
-1.805061e-07
-1.5296991e-07
-1.712247e-07
-1.6216863e-07
-1.6803911e-07
-1.6677939e-07
-1.6844464e-07
-1.6925557e-07
-1.7018849e-07
-1.7114362e-07
-1.7209819e-07
-1.7305096e-07
-1.7400139e-07
-1.7494963e-07
-1.7587421e-07
-1.7662723e-07
-1.7839473e-07
-1.7687368e-07
-1.8304097e-07
-1.7356651e-07
-1.9227528e-07
-1.6397651e-07
-2.0858791e-07
-1.4679353e-07
-2.3098315e-07
-1.227677e-07
-2.5705559e-07
-9.7179646e-08
-2.7639465e-07
-8.2816587e-08
-2.7046583e-07
-1.0006269e-07
-2.2288304e-07
-1.5736868e-07
-2.0488187e-07
-2.9728338e-07
-4.9742601e-08
-1.4227982e-07
-1.9049361e-07
-1.2319568e-07
-2.4681123e-07
-7.4599288e-08
-2.624715e-07
-6.8600851e-08
-2.4783791e-07
-8.8106685e-08
-2.2239302e-07
-1.14361e-07
-1.9851513e-07
-1.3686775e-07
-1.8117617e-07
-1.5323912e-07
-1.7168282e-07
-1.6243116e-07
-1.6836525e-07
-1.669804e-07
-1.6864581e-07
-1.6939348e-07
-1.7028398e-07
-1.7119646e-07
-1.7210808e-07
-1.7301802e-07
-1.739255e-07
-1.74831e-07
-1.7571358e-07
-1.7640548e-07
-1.7816484e-07
-1.7654132e-07
-1.8271408e-07
-1.730864e-07
-1.9191462e-07
-1.6341185e-07
-2.0811045e-07
-1.4630088e-07
-2.3039629e-07
-1.2224088e-07
-2.5638166e-07
-9.6637356e-08
-2.7567988e-07
-8.2292475e-08
-2.6977149e-07
-9.9584587e-08
-2.222646e-07
-1.569089e-07
-2.043932e-07
-2.9685073e-07
-5.0060596e-08
-1.4267846e-07
-1.9085957e-07
-1.2381412e-07
-2.4721453e-07
-7.5305611e-08
-2.6291045e-07
-6.933631e-08
-2.4830642e-07
-8.8791643e-08
-2.2285706e-07
-1.1494065e-07
-1.9895589e-07
-1.3730807e-07
-1.8176419e-07
-1.5355269e-07
-1.7211232e-07
-1.6268921e-07
-1.6867828e-07
-1.6717442e-07
-1.688393e-07
-1.6952568e-07
-1.703759e-07
-1.7124762e-07
-1.7211822e-07
-1.7298734e-07
-1.7385396e-07
-1.7471883e-07
-1.7556191e-07
-1.7619598e-07
-1.7794257e-07
-1.7619494e-07
-1.82444e-07
-1.7266414e-07
-1.9155643e-07
-1.6288905e-07
-2.0761417e-07
-1.4583778e-07
-2.2979428e-07
-1.2176464e-07
-2.556881e-07
-9.6168192e-08
-2.749473e-07
-8.1863222e-08
-2.690788e-07
-9.9218757e-08
-2.2168894e-07
-1.565705e-07
-2.040171e-07
-2.9655915e-07
-5.0231012e-08
-1.4296247e-07
-1.9110177e-07
-1.2441749e-07
-2.4749915e-07
-7.6040854e-08
-2.6323628e-07
-7.0121559e-08
-2.4868404e-07
-8.9518278e-08
-2.2325322e-07
-1.1554617e-07
-1.9934957e-07
-1.3777286e-07
-1.8226736e-07
-1.5386629e-07
-1.7252912e-07
-1.6295006e-07
-1.6898011e-07
-1.6736097e-07
-1.6902289e-07
-1.6965094e-07
-1.7046339e-07
-1.7129654e-07
-1.7212836e-07
-1.7295896e-07
-1.7378707e-07
-1.7461375e-07
-1.7542023e-07
-1.7600149e-07
-1.7774047e-07
-1.7591708e-07
-1.8214379e-07
-1.7227518e-07
-1.9121038e-07
-1.6241448e-07
-2.0709118e-07
-1.454085e-07
-2.2915659e-07
-1.2134779e-07
-2.5494316e-07
-9.5784806e-08
-2.7416086e-07
-8.1542599e-08
-2.683529e-07
-9.8974936e-08
-2.2113373e-07
-1.5636013e-07
-2.0376135e-07
-2.9642626e-07
-5.0234184e-08
-1.4312375e-07
-1.912133e-07
-1.2501187e-07
-2.4764637e-07
-7.6837251e-08
-2.6342794e-07
-7.1002131e-08
-2.4895121e-07
-9.0325823e-08
-2.2356811e-07
-1.162068e-07
-1.9969296e-07
-1.3828029e-07
-1.8271025e-07
-1.541911e-07
-1.7289805e-07
-1.6321973e-07
-1.6923561e-07
-1.6753306e-07