/*--------------------------------*- C++ -*----------------------------------*\
  =========                 |
  \\      /  F ield         | OpenFOAM: The Open Source CFD Toolbox
   \\    /   O peration     | Website:  https://openfoam.org
    \\  /    A nd           | Version:  6
     \\/     M anipulation  |
\*---------------------------------------------------------------------------*/
FoamFile
{
    version     2.0;
    format      ascii;
    class       volScalarField;
    location    "0/topCoolant";
    object      T;
}
// * * * * * * * * * * * * * * * * * * * * * * * * * * * * * * * * * * * * * //

dimensions      [ 0 0 0 1 0 0 0 ];

internalField   uniform 298;

boundaryField
{
    #includeEtc "caseDicts/setConstraintTypes"

    inlet
    {
        type            fixedValue;
        value           $internalField;
    }
    outlet
    {
        type            inletOutlet;
        value           $internalField;
        inletValue      $internalField;
    }
    walls
    {
        type            zeroGradient;
        value           $internalField;
    }
    back
    {
	type		symmetry;
    }

    "topCoolant_to_.*"
    {
        type            compressible::turbulentTemperatureCoupledBaffleMixed;
        value           $internalField;
        Tnbr            T;
        kappaMethod     fluidThermo;
    }
}


// ************************************************************************* //
