/*--------------------------------*- C++ -*----------------------------------*\
  =========                 |
  \\      /  F ield         | OpenFOAM: The Open Source CFD Toolbox
   \\    /   O peration     | Website:  https://openfoam.org
    \\  /    A nd           | Version:  11
     \\/     M anipulation  |
\*---------------------------------------------------------------------------*/
FoamFile
{
    format      ascii;
    class       volScalarField;
    location    "10/Air";
    object      p_rgh;
}
// * * * * * * * * * * * * * * * * * * * * * * * * * * * * * * * * * * * * * //

dimensions      [1 -1 -2 0 0 0 0];

internalField   nonuniform List<scalar> 
124340
(
4.2532836e-10
-1.1828004e-06
-9.0388613e-06
2.9293145e-06
-1.2233569e-05
3.2727774e-06
-1.1299279e-05
1.1067486e-06
-8.7803358e-06
-1.5851394e-06
-6.4690419e-06
-3.5797093e-06
-5.1101053e-06
-4.6134219e-06
-4.5816059e-06
-4.7932212e-06
-4.5664114e-06
-4.8304343e-06
-4.625582e-06
-4.8157189e-06
-4.7041443e-06
-4.7762542e-06
-4.7524067e-06
-4.7552648e-06
-4.7543376e-06
-4.7525391e-06
-4.7518016e-06
-4.7548289e-06
-4.7324452e-06
-4.8064422e-06
-4.6923565e-06
-4.8984146e-06
-4.6740276e-06
-4.9735114e-06
-4.727426e-06
-4.9651265e-06
-4.9496624e-06
-4.4211492e-06
-6.0138103e-06
-3.1110864e-06
-8.0143489e-06
-8.2347191e-07
-1.0720825e-05
1.6809019e-06
-1.2897249e-05
2.6114893e-06
-1.2546692e-05
-5.7399307e-07
-8.3670396e-06
-9.5887418e-06
-1.8198155e-06
-1.3524224e-06
-9.8850896e-06
3.2512837e-06
-1.2755142e-05
3.6878826e-06
-1.1710446e-05
1.4222298e-06
-9.0414934e-06
-1.4166284e-06
-6.5917921e-06
-3.53825e-06
-5.1193124e-06
-4.6131868e-06
-4.5736807e-06
-4.7901968e-06
-4.5572727e-06
-4.8231224e-06
-4.6158076e-06
-4.8119694e-06
-4.6977238e-06
-4.7719574e-06
-4.7501043e-06
-4.7535858e-06
-4.753745e-06
-4.7530435e-06
-4.7533759e-06
-4.7570528e-06
-4.7365802e-06
-4.8125828e-06
-4.6958011e-06
-4.9080548e-06
-4.6788968e-06
-4.9834477e-06
-4.7297568e-06
-4.9713237e-06
-4.9476291e-06
-4.4137645e-06
-6.0542025e-06
-2.9871853e-06
-8.1820304e-06
-5.6071408e-07
-1.10341e-05
2.0945508e-06
-1.3309923e-05
3.1317156e-06
-1.2873329e-05
2.5994225e-07
-8.2400034e-06
-7.7795275e-06
-1.068873e-06
-1.0539964e-06
-1.0081904e-05
3.5978292e-06
-1.3133026e-05
4.0420774e-06
-1.2055367e-05
1.6954623e-06
-9.2766547e-06
-1.2555374e-06
-6.7187403e-06
-3.464947e-06
-5.1683878e-06
-4.5913191e-06
-4.5775836e-06
-4.7816486e-06
-4.5599842e-06
-4.8147385e-06
-4.615701e-06
-4.80575e-06
-4.6948483e-06
-4.767778e-06
-4.747942e-06
-4.7522139e-06
-4.7533265e-06
-4.7536347e-06
-4.7549232e-06
-4.7594208e-06
-4.7408104e-06
-4.8155005e-06
-4.7023645e-06
-4.9082388e-06
-4.6885544e-06
-4.9796287e-06
-4.7383454e-06
-4.9656613e-06
-4.968782e-06
-4.3642868e-06
-6.1262939e-06
-2.8583608e-06
-8.3417932e-06
-3.2413578e-07
-1.1305775e-05
2.4409655e-06
-1.3663327e-05
3.5095087e-06
-1.3228211e-05
4.3252173e-07
-8.4798365e-06
-8.5255409e-06
-1.2010425e-06
-1.0673923e-06
-1.0295614e-05
3.7630646e-06
-1.3376621e-05
4.2501359e-06
-1.2276974e-05
1.865508e-06
-9.4366932e-06
-1.1424728e-06
-6.8204131e-06
-3.3921433e-06
-5.2267388e-06
-4.553242e-06
-4.5957469e-06
-4.7659922e-06
-4.5746769e-06
-4.7986219e-06
-4.6242517e-06
-4.7958239e-06
-4.6958023e-06
-4.7624052e-06
-4.7463993e-06
-4.7510704e-06
-4.7530667e-06
-4.7543506e-06
-4.7565305e-06
-4.7614597e-06
-4.7463002e-06
-4.8154734e-06
-4.7122922e-06
-4.899861e-06
-4.7051104e-06
-4.9631895e-06
-4.7547143e-06
-4.943533e-06
-5.0088613e-06
-4.3044198e-06
-6.1975683e-06
-2.7543783e-06
-8.4528292e-06
-1.623011e-07
-1.1473982e-05
2.6639632e-06
-1.3870511e-05
3.7530313e-06
-1.3396879e-05
6.4417338e-07
-8.4612373e-06
-8.3837803e-06
-1.0910995e-06
-1.0717404e-06
-1.0323239e-05
3.8880209e-06
-1.3523696e-05
4.3777076e-06
-1.242175e-05
1.9736438e-06
-9.5501214e-06
-1.0595868e-06
-6.9055465e-06
-3.3208229e-06
-5.2898242e-06
-4.4935342e-06
-4.633592e-06
-4.7470549e-06
-4.5968492e-06
-4.7793033e-06
-4.638116e-06
-4.7823563e-06
-4.7007689e-06
-4.7566552e-06
-4.7453313e-06
-4.7501704e-06
-4.7529636e-06
-4.7551688e-06
-4.7581562e-06
-4.7632954e-06
-4.7527441e-06
-4.8139876e-06
-4.7237228e-06
-4.8857795e-06
-4.7262631e-06
-4.9388217e-06
-4.7756144e-06
-4.9007326e-06
-5.0714116e-06
-4.2404231e-06
-6.2659871e-06
-2.6670615e-06
-8.5331755e-06
-4.6842275e-08
-1.1579909e-05
2.810401e-06
-1.3997018e-05
3.9007057e-06
-1.3525054e-05
6.6079344e-07
-8.4348462e-06
-8.4848215e-06
-1.1110227e-06
-1.0894752e-06
-1.0351916e-05
3.9645054e-06
-1.3615548e-05
4.4547249e-06
-1.2516478e-05
2.0434411e-06
-9.6308575e-06
-9.9572323e-07
-6.9791219e-06
-3.2533695e-06
-5.3544731e-06
-4.4263049e-06
-4.6766261e-06
-4.7279443e-06
-4.6220272e-06
-4.7588222e-06
-4.6560414e-06
-4.7666323e-06
-4.7075035e-06
-4.7512033e-06
-4.7445761e-06
-4.7495436e-06
-4.7530313e-06
-4.7560631e-06
-4.759744e-06
-4.764996e-06
-4.7592493e-06
-4.8081722e-06
-4.7388118e-06
-4.8693903e-06
-4.7496957e-06
-4.9114558e-06
-4.7972576e-06
-4.8541077e-06
-5.1395962e-06
-4.1795525e-06
-6.3263189e-06
-2.5922181e-06
-8.5939837e-06
3.8205196e-08
-1.1647254e-05
2.9081616e-06
-1.4072508e-05
3.9945496e-06
-1.3601507e-05
6.8945911e-07
-8.4062563e-06
-8.4564725e-06
-1.1197702e-06
-1.1010299e-06
-1.0370601e-05
4.0100818e-06
-1.3673164e-05
4.5010634e-06
-1.2581348e-05
2.089758e-06
-9.6931806e-06
-9.4377942e-07
-7.0423693e-06
-3.1954418e-06
-5.4144706e-06
-4.3614696e-06
-4.7173144e-06
-4.7127471e-06
-4.6454998e-06
-4.7396015e-06
-4.6740901e-06
-4.7512838e-06
-4.7142861e-06
-4.7467455e-06
-4.7440759e-06
-4.7492002e-06
-4.7532737e-06
-4.7570187e-06
-4.7612961e-06
-4.7667306e-06
-4.7652442e-06
-4.8015636e-06
-4.7560264e-06
-4.8511203e-06
-4.7725932e-06
-4.8861637e-06
-4.8165752e-06
-4.8100754e-06
-5.2022505e-06
-4.1223313e-06
-6.3830071e-06
-2.5263692e-06
-8.6423106e-06
1.0325277e-07
-1.169014e-05
2.9755085e-06
-1.4116278e-05
4.0541997e-06
-1.3644764e-05
7.1112808e-07
-8.387399e-06
-8.4411443e-06
-1.1318823e-06
-1.1103719e-06
-1.0385529e-05
4.0348023e-06
-1.3711149e-05
4.52787e-06
-1.2626609e-05
2.1206887e-06
-9.7416213e-06
-9.0210093e-07
-7.096356e-06
-3.1345419e-06
-5.4716858e-06
-4.3019758e-06
-4.765534e-06
-4.6905063e-06
-4.6628553e-06
-4.7234958e-06
-4.6893236e-06
-4.738051e-06
-4.7192832e-06
-4.7441715e-06
-4.7439814e-06
-4.7491362e-06
-4.7536755e-06
-4.7580186e-06
-4.7628028e-06
-4.7685028e-06
-4.7701957e-06
-4.7960922e-06
-4.7722763e-06
-4.8347767e-06
-4.7927538e-06
-4.8673203e-06
-4.8431075e-06
-4.7590195e-06
-5.2585943e-06
-4.0696028e-06
-6.437909e-06
-2.4694052e-06
-8.6797999e-06
1.5493274e-07
-1.1717474e-05
3.0240651e-06
-1.4139841e-05
4.0956246e-06
-1.3666057e-05
7.3015841e-07
-8.3720993e-06
-8.4233212e-06
-1.1446723e-06
-1.1189337e-06
-1.0398328e-05
4.0464099e-06
-1.3737365e-05
4.5424171e-06
-1.2659328e-05
2.1412595e-06
-9.7795587e-06
-8.6959054e-07
-7.1418384e-06
-3.0846285e-06
-5.5253645e-06
-4.2516496e-06
-4.813163e-06
-4.6702578e-06
-4.6734142e-06
-4.7123491e-06
-4.7001169e-06
-4.7289413e-06
-4.7245528e-06
-4.7406573e-06
-4.7438544e-06
-4.7492463e-06
-4.7542014e-06
-4.7590452e-06
-4.7642235e-06
-4.7700108e-06
-4.7734063e-06
-4.793298e-06
-4.7854801e-06
-4.8229389e-06
-4.807611e-06
-4.8558907e-06
-4.8664422e-06
-4.7101627e-06
-5.3066611e-06
-4.0141753e-06
-6.4833199e-06
-2.4222575e-06
-8.7084573e-06
1.9613635e-07
-1.1734439e-05
3.0602811e-06
-1.4150854e-05
4.1255579e-06
-1.3673799e-05
7.4726867e-07
-8.3583257e-06
-8.4054348e-06
-1.1567984e-06
-1.1274198e-06
-1.040961e-05
4.0501189e-06
-1.3756613e-05
4.5493019e-06
-1.2683899e-05
2.1545405e-06
-9.809482e-06
-8.4517305e-07
-7.1789238e-06
-3.0454553e-06
-5.5710853e-06
-4.2089521e-06
-4.8551324e-06
-4.650754e-06
-4.6822082e-06
-4.7070225e-06
-4.7065942e-06
-4.7244118e-06
-4.7275602e-06
-4.738514e-06
-4.7438408e-06
-4.7495044e-06
-4.7548343e-06
-4.7601058e-06
-4.7656567e-06
-4.7717717e-06
-4.7775963e-06
-4.7908818e-06
-4.7935092e-06
-4.8161682e-06
-4.8157783e-06
-4.8457606e-06
-4.8898101e-06
-4.6680338e-06
-5.3478532e-06
-3.9698332e-06
-6.5177067e-06
-2.3837913e-06
-8.7293412e-06
2.2916379e-07
-1.1744208e-05
3.0883548e-06
-1.4154106e-05
4.1486017e-06
-1.3673513e-05
7.628395e-07
-8.3451226e-06
-8.3886584e-06
-1.1682112e-06
-1.1361328e-06
-1.0419729e-05
4.0491868e-06
-1.3771627e-05
4.5513242e-06
-1.2702987e-05
2.1624183e-06
-9.8332073e-06
-8.2800372e-07
-7.2083833e-06
-3.0161535e-06
-5.6079237e-06
-4.173892e-06
-4.8906479e-06
-4.6308979e-06
-4.6909646e-06
-4.7062407e-06
-4.710508e-06
-4.7228853e-06
-4.7289874e-06
-4.7377436e-06
-4.7439789e-06
-4.7499028e-06
-4.7555562e-06
-4.7611849e-06
-4.7670662e-06
-4.7734655e-06
-4.7804163e-06
-4.7906734e-06
-4.7975807e-06
-4.812959e-06
-4.8184888e-06
-4.8363768e-06
-4.9129231e-06
-4.6328249e-06
-5.3814188e-06
-3.9342015e-06
-6.5439496e-06
-2.3531597e-06
-8.7436493e-06
2.5564136e-07
-1.1748802e-05
3.1108231e-06
-1.4152533e-05
4.1673592e-06
-1.3668618e-05
7.7713851e-07
-8.3320865e-06
-8.372946e-06
-1.1790799e-06
-1.1451422e-06
-1.0428943e-05
4.0455774e-06
-1.3783953e-05
4.5502318e-06
-1.2718239e-05
2.1663083e-06
-9.8520154e-06
-8.1658066e-07
-7.2314582e-06
-2.9956489e-06
-5.6364671e-06
-4.1464376e-06
-4.9202841e-06
-4.6127338e-06
-4.6992236e-06
-4.70756e-06
-4.7131992e-06
-4.7228684e-06
-4.7299155e-06
-4.7377178e-06
-4.7442694e-06
-4.7504195e-06
-4.7563427e-06
-4.7622638e-06
-4.7684213e-06
-4.7750573e-06
-4.7823754e-06
-4.791406e-06
-4.7996915e-06
-4.8116309e-06
-4.8190509e-06
-4.8279347e-06
-4.9336082e-06
-4.6047518e-06
-5.4071415e-06
-3.9071923e-06
-6.5623661e-06
-2.3288737e-06
-8.7526009e-06
2.7697925e-07
-1.1749637e-05
3.1292836e-06
-1.4147967e-05
4.1833036e-06
-1.3661164e-05
7.9036878e-07
-8.3190903e-06
-8.3580662e-06
-1.1895784e-06
-1.1544356e-06
-1.0437435e-05
4.040458e-06
-1.3794504e-05
4.5471368e-06
-1.2730751e-05
2.16725e-06
-9.8669958e-06
-8.0972135e-07
-7.2494355e-06
-2.9820432e-06
-5.6587981e-06
-4.1263401e-06
-4.9440791e-06
-4.5969205e-06
-4.7073369e-06
-4.7093079e-06
-4.7152429e-06
-4.7235353e-06
-4.73076e-06
-4.7380863e-06
-4.744735e-06
-4.7510418e-06
-4.7571738e-06
-4.7633239e-06
-4.7696939e-06
-4.7764928e-06
-4.7839144e-06
-4.7923745e-06
-4.8009715e-06
-4.8112796e-06
-4.8193216e-06
-4.8198694e-06
-4.9510477e-06
-4.5857796e-06
-5.4228751e-06
-3.8852012e-06
-6.5742371e-06
-2.3096457e-06
-8.7572703e-06
2.9430735e-07
-1.1747748e-05
3.1448058e-06
-1.4141574e-05
4.1972947e-06
-1.3652374e-05
8.0268569e-07
-8.3061318e-06
-8.3438441e-06
-1.1998093e-06
-1.1639423e-06
-1.044534e-05
4.0345216e-06
-1.3803833e-05
4.5427631e-06
-1.2741285e-05
2.1660427e-06
-9.8790625e-06
-8.0638886e-07
-7.2634703e-06
-2.9736893e-06
-5.675965e-06
-4.1150484e-06
-4.9597936e-06
-4.5837843e-06
-4.7153564e-06
-4.7109393e-06
-4.7168885e-06
-4.7244843e-06
-4.731634e-06
-4.7386883e-06
-4.7453467e-06
-4.7517501e-06
-4.7580316e-06
-4.7643491e-06
-4.7708703e-06
-4.7777669e-06
-4.7851959e-06
-4.7933442e-06
-4.8019021e-06
-4.8114333e-06
-4.8196955e-06
-4.8119858e-06
-4.964593e-06
-4.570109e-06
-5.4339912e-06
-3.8688276e-06
-6.5812347e-06
-2.2944831e-06
-8.7586752e-06
3.0852657e-07
-1.1743943e-05
3.1581307e-06
-1.4134111e-05
4.2098534e-06
-1.3642976e-05
8.142058e-07
-8.2932784e-06
-8.3301834e-06
-1.209808e-06
-1.173562e-06
-1.0452756e-05
4.0281863e-06
-1.3812289e-05
4.5376013e-06
-1.2750383e-05
2.1633255e-06
-9.8889692e-06
-8.056493e-07
-7.2745194e-06
-2.969186e-06
-5.6889012e-06
-4.1073437e-06
-4.9735751e-06
-4.5736479e-06
-4.72343e-06
-4.7122974e-06
-4.7182694e-06
-4.7255314e-06
-4.732553e-06
-4.7394335e-06
-4.7460664e-06
-4.752521e-06
-4.7588993e-06
-4.7653289e-06
-4.7719459e-06
-4.7788906e-06
-4.7862856e-06
-4.7942342e-06
-4.8026586e-06
-4.811814e-06
-4.8202342e-06
-4.8040945e-06
-4.9752456e-06
-4.5568867e-06
-5.4415018e-06
-3.8562848e-06
-6.5847199e-06
-2.282417e-06
-8.7577175e-06
3.2038161e-07
-1.1738865e-05
3.1697909e-06
-1.4126088e-05
4.2213063e-06
-1.3633404e-05
8.2501348e-07
-8.2806291e-06
-8.3170519e-06
-1.2195692e-06
-1.1831877e-06
-1.0459754e-05
4.0217075e-06
-1.3820093e-05
4.5319902e-06
-1.2758436e-05
2.1595949e-06
-9.8973096e-06
-8.0674632e-07
-7.2833988e-06
-2.9673767e-06
-5.6990236e-06
-4.1024104e-06
-4.9858375e-06
-4.5656687e-06
-4.7316534e-06
-4.7133775e-06
-4.719483e-06
-4.7266047e-06
-4.7335099e-06
-4.7402683e-06
-4.7468604e-06
-4.7533316e-06
-4.759762e-06
-4.7662551e-06
-4.7729201e-06
-4.779873e-06
-4.7872114e-06
-4.795009e-06
-4.8032841e-06
-4.8122465e-06
-4.8209016e-06
-4.7961617e-06
-4.9835561e-06
-4.5459274e-06
-5.4458898e-06
-3.8465079e-06
-6.5856497e-06
-2.2726432e-06
-8.7551284e-06
3.3046962e-07
-1.1733005e-05
3.1801769e-06
-1.4117853e-05
4.2318697e-06
-1.3623924e-05
8.3517277e-07
-8.2682827e-06
-8.3044512e-06
-1.2290682e-06
-1.1927205e-06
-1.0466389e-05
4.0152419e-06
-1.3827391e-05
4.5261643e-06
-1.2765721e-05
2.1552284e-06
-9.9045287e-06
-8.0908392e-07
-7.2907283e-06
-2.9674533e-06
-5.7070876e-06
-4.0996869e-06
-4.9963305e-06
-4.5593377e-06
-4.7400089e-06
-4.7142262e-06
-4.7206092e-06
-4.7276897e-06
-4.7344995e-06
-4.741162e-06
-4.7477034e-06
-4.754163e-06
-4.7606067e-06
-4.7671189e-06
-4.7737922e-06
-4.7807196e-06
-4.7879826e-06
-4.7956444e-06
-4.8037665e-06
-4.8126037e-06
-4.8216138e-06
-4.7881368e-06
-4.9896813e-06
-4.5371673e-06
-5.4482609e-06
-3.8388551e-06
-6.5848251e-06
-2.2645464e-06
-8.7514833e-06
3.3924639e-07
-1.172673e-05
3.1895729e-06
-1.4109635e-05
4.2416893e-06
-1.3614691e-05
8.4473469e-07
-8.2563269e-06
-8.2923955e-06
-1.2382746e-06
-1.2020751e-06
-1.0472704e-05
4.0088845e-06
-1.3834277e-05
4.5202843e-06
-1.277243e-05
2.1505042e-06
-9.9109459e-06
-8.1221537e-07
-7.2969558e-06
-2.9688162e-06
-5.7136168e-06
-4.0985721e-06
-5.0052756e-06
-4.5544148e-06
-4.7484735e-06
-4.7149052e-06
-4.7217229e-06
-4.7288009e-06
-4.7355244e-06
-4.7420993e-06
-4.7485784e-06
-4.755001e-06
-4.7614242e-06
-4.7679188e-06
-4.7745628e-06
-4.7814331e-06
-4.7885999e-06
-4.7961206e-06
-4.8040757e-06
-4.8127919e-06
-4.8223194e-06
-4.7800714e-06
-4.9925002e-06
-4.5313956e-06
-5.4494642e-06
-3.8326859e-06
-6.5828986e-06
-2.2576535e-06
-8.7472101e-06
3.47048e-07
-1.1720302e-05
3.1981838e-06
-1.4101588e-05
4.2508671e-06
-1.3605796e-05
8.5374493e-07
-8.2448385e-06
-8.2808999e-06
-1.2471595e-06
-1.2111824e-06
-1.047873e-05
4.0026925e-06
-1.3840812e-05
4.514458e-06
-1.2778693e-05
2.1456197e-06
-9.9167819e-06
-8.1581602e-07
-7.3024073e-06
-2.9709631e-06
-5.7190847e-06
-4.0983535e-06
-5.0127945e-06
-4.5510279e-06
-4.7569398e-06
-4.7154708e-06
-4.7228935e-06
-4.7299643e-06
-4.7365932e-06
-4.7430738e-06
-4.7494749e-06
-4.7558361e-06
-4.762208e-06
-4.7686514e-06
-4.7752328e-06
-4.7820157e-06
-4.789062e-06
-4.7964228e-06
-4.8041848e-06
-4.812751e-06
-4.8230331e-06
-4.7730902e-06
-4.9927945e-06
-4.5276854e-06
-5.4494717e-06
-3.8274897e-06
-6.5803235e-06
-2.2516139e-06
-8.742611e-06
3.5411462e-07
-1.1713899e-05
3.2061542e-06
-1.4093806e-05
4.2594756e-06
-1.3597288e-05
8.6224882e-07
-8.233884e-06
-8.2699753e-06
-1.2556982e-06
-1.2199892e-06
-1.0484493e-05
3.9966985e-06
-1.3847037e-05
4.5087551e-06
-1.2784595e-05
2.1407092e-06
-9.9221855e-06
-8.1966159e-07
-7.3073105e-06
-2.9735396e-06
-5.7238103e-06
-4.0985269e-06
-5.0169415e-06
-4.5512187e-06
-4.7651169e-06
-4.7159668e-06
-4.7241761e-06
-4.7312037e-06
-4.7377148e-06
-4.7440838e-06
-4.7503869e-06
-4.7566619e-06
-4.7629542e-06
-4.7693158e-06
-4.7758032e-06
-4.7824711e-06
-4.7893701e-06
-4.7965449e-06
-4.8040775e-06
-4.8124283e-06
-4.8235761e-06
-4.7665081e-06
-4.993298e-06
-4.5240436e-06
-5.4486387e-06
-3.8229632e-06
-6.5773714e-06
-2.2461746e-06
-8.7378893e-06
3.6061324e-07
-1.1707634e-05
3.2135861e-06
-1.4086342e-05
4.2675698e-06
-1.358919e-05
8.7027046e-07
-8.2234695e-06
-8.2596251e-06
-1.2638724e-06
-1.2284557e-06
-1.0490012e-05
3.9909198e-06
-1.3852978e-05
4.5032184e-06
-1.279019e-05
2.1358577e-06
-9.9272536e-06
-8.2360226e-07
-7.3118265e-06
-2.9763466e-06
-5.7280564e-06
-4.0996515e-06
-5.0209047e-06
-4.5516408e-06
-4.7724485e-06
-4.7164378e-06
-4.7256014e-06
-4.7325309e-06
-4.7388927e-06
-4.7451274e-06
-4.7513101e-06
-4.7574747e-06
-4.763661e-06
-4.7699134e-06
-4.7762792e-06
-4.782804e-06
-4.7895306e-06
-4.7964939e-06
-4.8037622e-06
-4.8118353e-06
-4.8240202e-06
-4.7605679e-06
-4.9926442e-06
-4.5211873e-06
-5.4472788e-06
-3.8189018e-06
-6.5742233e-06
-2.241171e-06
-8.7331738e-06
3.6665881e-07
-1.1701573e-05
3.2205515e-06
-1.4079225e-05
4.2751916e-06
-1.3581508e-05
8.7783524e-07
-8.2135926e-06
-8.2498459e-06
-1.2716707e-06
-1.2365547e-06
-1.0495301e-05
3.9853645e-06
-1.3858653e-05
4.4978726e-06
-1.2795516e-05
2.1311177e-06
-9.9320497e-06
-8.2754551e-07
-7.316061e-06
-2.9792806e-06
-5.7319356e-06
-4.1011766e-06
-5.0243064e-06
-4.5526729e-06
-4.7791936e-06
-4.716884e-06
-4.7271733e-06
-4.7339412e-06
-4.7401205e-06
-4.746198e-06
-4.7522389e-06
-4.7582709e-06
-4.7643281e-06
-4.7704475e-06
-4.7766683e-06
-4.7830283e-06
-4.7895622e-06
-4.7962946e-06
-4.8032724e-06
-4.8110169e-06
-4.8243784e-06
-4.75518e-06
-4.9919232e-06
-4.5183803e-06
-5.4453746e-06
-3.8151427e-06
-6.5709591e-06
-2.2364864e-06
-8.7285392e-06
3.7232991e-07
-1.1695755e-05
3.2271021e-06
-1.4072464e-05
4.2823743e-06
-1.3574238e-05
8.8497134e-07
-8.2042532e-06
-8.2406291e-06
-1.2790876e-06
-1.2442697e-06
-1.0500373e-05
3.9800343e-06
-1.3864076e-05
4.4927302e-06
-1.2800596e-05
2.1265192e-06
-9.936615e-06
-8.3143712e-07
-7.3200826e-06
-2.9822887e-06
-5.735561e-06
-4.103195e-06
-5.0274727e-06
-4.5537879e-06
-4.785301e-06
-4.7173076e-06
-4.7288667e-06
-4.7354162e-06
-4.7413834e-06
-4.7472837e-06
-4.7531649e-06
-4.7590461e-06
-4.7649552e-06
-4.770923e-06
-4.7769813e-06
-4.7831606e-06
-4.789488e-06
-4.7959771e-06
-4.8026532e-06
-4.8100507e-06
-4.8247763e-06
-4.7504155e-06
-4.9912058e-06
-4.5154988e-06
-5.4431265e-06
-3.8115793e-06
-6.5676337e-06
-2.2320515e-06
-8.7240281e-06
3.7767935e-07
-1.1690194e-05
3.233276e-06
-1.4066056e-05
4.2891453e-06
-1.3567366e-05
8.9170607e-07
-8.1954481e-06
-8.2319636e-06
-1.2861233e-06
-1.2515935e-06
-1.0505237e-05
3.9749273e-06
-1.3869256e-05
4.4877962e-06
-1.2805446e-05
2.1220788e-06
-9.9409757e-06
-8.3524535e-07
-7.3239301e-06
-2.985338e-06
-5.7389946e-06
-4.1055029e-06
-5.0306276e-06
-4.5548391e-06
-4.7907504e-06
-4.7176197e-06
-4.7306242e-06
-4.7369255e-06
-4.7426631e-06
-4.7483723e-06
-4.75408e-06
-4.7597963e-06
-4.7655433e-06
-4.7713453e-06
-4.777228e-06
-4.7832152e-06
-4.7893272e-06
-4.795569e-06
-4.8019475e-06
-4.8090075e-06
-4.8252967e-06
-4.7461768e-06
-4.9904739e-06
-4.5125278e-06
-5.4406883e-06
-3.8081573e-06
-6.5642961e-06
-2.2278276e-06
-8.7196647e-06
3.8274196e-07
-1.1684895e-05
3.2391018e-06
-1.4059993e-05
4.2955282e-06
-1.3560876e-05
8.9806514e-07
-8.1871676e-06
-8.2238354e-06
-1.2927826e-06
-1.2585254e-06
-1.0509901e-05
3.9700394e-06
-1.3874202e-05
4.4830711e-06
-1.2810077e-05
2.1178049e-06
-9.9451471e-06
-8.3895037e-07
-7.327622e-06
-2.9883908e-06
-5.7422764e-06
-4.1079496e-06
-5.0337861e-06
-4.555757e-06
-4.7957085e-06
-4.717772e-06
-4.7323912e-06
-4.7384353e-06
-4.7439405e-06
-4.7494514e-06
-4.7549777e-06
-4.7605186e-06
-4.7660929e-06
-4.7717191e-06
-4.7774167e-06
-4.7832041e-06
-4.7890964e-06
-4.7950934e-06
-4.8011892e-06
-4.8079467e-06
-4.8260961e-06
-4.7430894e-06
-4.989041e-06
-4.509369e-06
-5.4381504e-06
-3.8048511e-06
-6.5609891e-06
-2.2237951e-06
-8.7154635e-06
3.8754061e-07
-1.1679857e-05
3.2446022e-06
-1.4054263e-05
4.3015453e-06
-1.3554752e-05
9.0406713e-07
-8.1793957e-06
-8.2162157e-06
-1.2990736e-06
-1.2650708e-06
-1.0514375e-05
3.9653648e-06
-1.3878922e-05
4.4785524e-06
-1.2814499e-05
2.1137015e-06
-9.9491378e-06
-8.4253857e-07
-7.3311658e-06
-2.9914127e-06
-5.7454317e-06
-4.1104546e-06
-5.0370156e-06
-4.5568957e-06
-4.7998863e-06
-4.7176468e-06
-4.7341144e-06
-4.7399164e-06
-4.7451969e-06
-4.7505097e-06
-4.7558472e-06
-4.7612094e-06
-4.7666048e-06
-4.7720485e-06
-4.7775553e-06
-4.7831389e-06
-4.7888105e-06
-4.7945668e-06
-4.8003905e-06
-4.8068586e-06
-4.8271188e-06
-4.741503e-06
-4.9864637e-06
-4.5061159e-06
-5.4356068e-06
-3.8016599e-06
-6.5577488e-06
-2.2199455e-06
-8.7114333e-06
3.920906e-07
-1.1675074e-05
3.2497959e-06
-1.4048851e-05
4.3072167e-06
-1.3548977e-05
9.0973088e-07
-8.1721122e-06
-8.2090784e-06
-1.3050075e-06
-1.2712384e-06
-1.0518664e-05
3.9608968e-06
-1.3883424e-05
4.4742362e-06
-1.2818716e-05
2.1097702e-06
-9.9529523e-06
-8.4599988e-07
-7.3345629e-06
-2.9943743e-06
-5.7484712e-06
-4.1129612e-06
-5.0403587e-06
-4.5590739e-06
-4.8025691e-06
-4.7171732e-06
-4.7357751e-06
-4.7413537e-06
-4.7464202e-06
-4.7515384e-06
-4.7566893e-06
-4.7618674e-06
-4.7670801e-06
-4.7723379e-06
-4.7776515e-06
-4.7830305e-06
-4.7884825e-06
-4.794e-06
-4.7995473e-06
-4.8056664e-06
-4.8278637e-06
-4.7395985e-06
-4.9845052e-06
-4.5033075e-06
-5.4331737e-06
-3.7985997e-06
-6.5546049e-06
-2.2162763e-06
-8.7075798e-06
3.964027e-07
-1.167054e-05
3.2546987e-06
-1.4043742e-05
4.3125613e-06
-1.3543533e-05
9.150753e-07
-8.1652953e-06
-8.2023992e-06
-1.3105968e-06
-1.2770398e-06
-1.0522776e-05
3.9566278e-06
-1.3887715e-05
4.4701172e-06
-1.2822735e-05
2.1060111e-06
-9.9565929e-06
-8.4932632e-07
-7.3378114e-06
-2.9972496e-06
-5.7513857e-06
-4.11538e-06
-5.043493e-06
-4.5615271e-06
-4.8045864e-06
-4.7166512e-06
-4.7374273e-06
-4.7427518e-06
-4.7476046e-06
-4.7525306e-06
-4.7574954e-06
-4.76249e-06
-4.7675197e-06
-4.7725915e-06
-4.7777125e-06
-4.7828888e-06
-4.7881248e-06
-4.7934074e-06
-4.7986749e-06
-4.8043894e-06
-4.8284395e-06
-4.7375968e-06
-4.9828811e-06
-4.5007884e-06
-5.4308572e-06
-3.7956803e-06
-6.5515789e-06
-2.2127868e-06
-8.7039061e-06
4.0048519e-07
-1.1666246e-05
3.2593248e-06
-1.4038922e-05
4.3175971e-06
-1.35384e-05
9.2012007e-07
-8.1589228e-06
-8.1961543e-06
-1.3158554e-06
-1.282488e-06
-1.0526721e-05
3.9525489e-06
-1.3891803e-05
4.4661896e-06
-1.2826561e-05
2.1024235e-06
-9.960061e-06
-8.5251145e-07
-7.3409081e-06
-3.0000171e-06
-5.7541621e-06
-4.11766e-06
-5.0461923e-06
-4.5634254e-06
-4.8068253e-06
-4.7163217e-06
-4.7391095e-06
-4.7441126e-06
-4.7487448e-06
-4.7534807e-06
-4.7582622e-06
-4.763076e-06
-4.767925e-06
-4.7728132e-06
-4.7777448e-06
-4.7827232e-06
-4.7877496e-06
-4.7928062e-06
-4.7978046e-06
-4.8031038e-06
-4.8289656e-06
-4.7355561e-06
-4.9815014e-06
-4.4984228e-06
-5.4286279e-06
-3.7928978e-06
-6.5486817e-06
-2.2094751e-06
-8.7004135e-06
4.0434505e-07
-1.1662185e-05
3.2636871e-06
-1.4034375e-05
4.3223413e-06
-1.3533562e-05
9.2488439e-07
-8.1529726e-06
-8.1903202e-06
-1.3207973e-06
-1.2875968e-06
-1.0530509e-05
3.9486499e-06
-1.3895697e-05
4.4624464e-06
-1.2830198e-05
2.0990059e-06
-9.9633572e-06
-8.555503e-07
-7.3438505e-06
-3.0026625e-06
-5.7567946e-06
-4.1198288e-06
-5.0486624e-06
-4.5649509e-06
-4.8091398e-06
-4.7160351e-06
-4.7407724e-06
-4.7454176e-06
-4.7498318e-06
-4.7543831e-06
-4.7589866e-06
-4.7636245e-06
-4.7682971e-06
-4.7730065e-06
-4.7777539e-06
-4.7825412e-06
-4.7873675e-06
-4.7922117e-06
-4.7969631e-06
-4.8018721e-06
-4.8295286e-06
-4.7335927e-06
-4.9802245e-06
-4.4961294e-06
-5.4264748e-06
-3.790246e-06
-6.5459174e-06
-2.2063391e-06
-8.6971022e-06
4.0798835e-07
-1.165835e-05
3.2677975e-06
-1.4030087e-05
4.3268108e-06
-1.3528997e-05
9.2938811e-07
-8.1474231e-06
-8.1848744e-06
-1.325436e-06
-1.2923793e-06
-1.0534151e-05
3.9449187e-06
-1.3899405e-05
4.4588796e-06
-1.2833652e-05
2.0957558e-06
-9.9664817e-06
-8.5843921e-07
-7.3466374e-06
-3.0051803e-06
-5.7592897e-06
-4.121901e-06
-5.0509957e-06
-4.5663195e-06
-4.8113564e-06
-4.7156977e-06
-4.7423401e-06
-4.7466432e-06
-4.7508558e-06
-4.755233e-06
-4.7596664e-06
-4.7641349e-06
-4.7686374e-06
-4.7731741e-06
-4.7777446e-06
-4.782349e-06
-4.7869857e-06
-4.7916321e-06
-4.7961579e-06
-4.8006756e-06
-4.8301494e-06
-4.731828e-06
-4.9789357e-06
-4.4938865e-06
-5.4244006e-06
-3.7877261e-06
-6.5432917e-06
-2.2033786e-06
-8.6939717e-06
4.1142016e-07
-1.1654731e-05
3.2716672e-06
-1.4026043e-05
4.3310218e-06
-1.3524687e-05
9.3365077e-07
-8.1422537e-06
-8.1797957e-06
-1.3297837e-06
-1.296848e-06
-1.053766e-05
3.9413398e-06
-1.3902937e-05
4.4554794e-06
-1.2836926e-05
2.0926702e-06
-9.9694338e-06
-8.6117534e-07
-7.349266e-06
-3.0075651e-06
-5.7616472e-06
-4.1238784e-06
-5.0532439e-06
-4.5676415e-06
-4.8133714e-06
-4.7152707e-06
-4.7438258e-06
-4.7477833e-06
-4.7518124e-06
-4.7560279e-06
-4.7603004e-06
-4.7646076e-06
-4.7689475e-06
-4.7733189e-06
-4.7777204e-06
-4.7821509e-06
-4.7866084e-06
-4.7910701e-06
-4.7953883e-06
-4.7995102e-06
-4.8308021e-06
-4.730357e-06
-4.977549e-06
-4.491727e-06
-5.4224348e-06
-3.7853492e-06
-6.5408132e-06
-2.2005962e-06
-8.6910214e-06
4.146442e-07
-1.1651319e-05
3.275306e-06
-1.4022225e-05
4.3349898e-06
-1.3520608e-05
9.3769296e-07
-8.1374462e-06
-8.1750658e-06
-1.3338502e-06
-1.3010131e-06
-1.0541054e-05
3.9378931e-06
-1.39063e-05
4.4522329e-06
-1.2840022e-05
2.0897444e-06
-9.972211e-06
-8.6375622e-07
-7.3517309e-06
-3.0098088e-06
-5.7638586e-06
-4.1257415e-06
-5.0553891e-06
-4.5690121e-06
-4.8150839e-06
-4.7147736e-06
-4.7452393e-06
-4.7488409e-06
-4.7527023e-06
-4.7567676e-06
-4.760889e-06
-4.7650435e-06
-4.769229e-06
-4.7734434e-06
-4.7776845e-06
-4.7819503e-06
-4.7862384e-06
-4.7905257e-06
-4.7946456e-06
-4.7983385e-06
-4.8313537e-06
-4.7290573e-06
-4.976181e-06
-4.4897854e-06
-5.4206165e-06
-3.7831331e-06
-6.5384921e-06
-2.1979962e-06
-8.6882506e-06
4.1766247e-07
-1.1648106e-05
3.2787214e-06
-1.4018616e-05
4.3387286e-06
-1.3516737e-05
9.415354e-07
-8.1329843e-06
-8.1706692e-06
-1.337641e-06
-1.3048821e-06
-1.0544352e-05
3.9345498e-06
-1.3909502e-05
4.4491216e-06
-1.2842938e-05
2.086971e-06
-9.9748075e-06
-8.6618018e-07
-7.3540237e-06
-3.0119011e-06
-5.7659077e-06
-4.1274593e-06
-5.0573291e-06
-4.5703998e-06
-4.8165365e-06
-4.7143131e-06
-4.7466123e-06
-4.7498261e-06
-4.7535291e-06
-4.7574538e-06
-4.7614331e-06
-4.7654439e-06
-4.7694838e-06
-4.77355e-06
-4.7776397e-06
-4.7817502e-06
-4.7858787e-06
-4.7900013e-06
-4.7939318e-06
-4.7971621e-06
-4.8317858e-06
-4.7278029e-06
-4.9749413e-06
-4.4880845e-06
-5.4189504e-06
-3.781089e-06
-6.5363355e-06
-2.1955834e-06
-8.6856563e-06
4.2047443e-07
-1.1645077e-05
3.2819178e-06
-1.401519e-05
4.3422491e-06
-1.351304e-05
9.4520011e-07
-8.1288556e-06
-8.1665965e-06
-1.3411543e-06
-1.3084586e-06
-1.0547575e-05
3.9312665e-06
-1.3912541e-05
4.4461166e-06
-1.2845664e-05
2.0843367e-06
-9.9772121e-06
-8.684484e-07
-7.3561335e-06
-3.0138335e-06
-5.76778e-06
-4.1290197e-06
-5.0590079e-06
-4.5716491e-06
-4.8179033e-06
-4.713948e-06
-4.7479544e-06
-4.7507428e-06
-4.7542952e-06
-4.7580877e-06
-4.7619339e-06
-4.7658102e-06
-4.7697136e-06
-4.773641e-06
-4.7775889e-06
-4.781554e-06
-4.7855333e-06
-4.7895026e-06
-4.7932582e-06
-4.7960119e-06
-4.8321356e-06
-4.7265719e-06
-4.9738328e-06
-4.4865857e-06
-5.4174232e-06
-3.7792204e-06
-6.5343434e-06
-2.1933626e-06
-8.6832314e-06
4.2307483e-07
-1.1642212e-05
3.2848917e-06
-1.4011913e-05
4.3455557e-06
-1.3509472e-05
9.4870878e-07
-8.125052e-06
-8.162846e-06
-1.3443773e-06
-1.311741e-06
-1.0550747e-05
3.9279738e-06
-1.3915406e-05
4.44317e-06
-1.2848178e-05
2.0818169e-06
-9.9794032e-06
-8.7056856e-07
-7.3580462e-06
-3.0156051e-06
-5.7694671e-06
-4.1304337e-06
-5.0604623e-06
-4.5727481e-06
-4.8192205e-06
-4.7136464e-06
-4.7492414e-06
-4.7515851e-06
-4.7549995e-06
-4.7586701e-06
-4.7623927e-06
-4.7661437e-06
-4.7699203e-06
-4.7737183e-06
-4.7775344e-06
-4.7813647e-06
-4.785206e-06
-4.7890349e-06
-4.7926333e-06
-4.7949005e-06
-4.8324385e-06
-4.7253642e-06
-4.9728454e-06
-4.4852528e-06
-5.4160259e-06
-3.7775287e-06
-6.5325099e-06
-2.1913419e-06
-8.680962e-06
4.254487e-07
-1.163948e-05
3.2876253e-06
-1.4008732e-05
4.3486392e-06
-1.3505965e-05
9.5208237e-07
-8.1215709e-06
-8.1594292e-06
-1.347279e-06
-1.3147213e-06
-1.0553893e-05
3.9245561e-06
-1.3918057e-05
4.4401971e-06
-1.2850424e-05
2.0793638e-06
-9.9813392e-06
-8.7256102e-07
-7.3597398e-06
-3.0172237e-06
-5.7709622e-06
-4.1317109e-06
-5.0617305e-06
-4.5737086e-06
-4.8204921e-06
-4.7133754e-06
-4.750465e-06
-4.7523494e-06
-4.7556415e-06
-4.7592013e-06
-4.7628104e-06
-4.766446e-06
-4.7701054e-06
-4.7737841e-06
-4.7774785e-06
-4.7811847e-06
-4.7848996e-06
-4.7886016e-06
-4.7920609e-06
-4.7938325e-06
-4.8327182e-06
-4.7241908e-06
-4.9719707e-06
-4.4840645e-06
-5.4147528e-06
-3.7760173e-06
-6.5308231e-06
-2.1895385e-06
-8.6788213e-06
4.2756146e-07
-1.1636825e-05
3.2900714e-06
-1.4005555e-05
4.3514627e-06
-1.3502406e-05
9.5533624e-07
-8.1184169e-06
-8.1563777e-06
-1.3498002e-06
-1.3173833e-06
-1.0557027e-05
3.9208145e-06
-1.3920397e-05
4.4370458e-06
-1.2852289e-05
2.076885e-06
-9.982939e-06
-8.744708e-07
-7.3611733e-06
-3.0187089e-06
-5.7722533e-06
-4.1328606e-06
-5.0628344e-06
-4.5745431e-06
-4.8217084e-06
-4.7131114e-06
-4.7516198e-06
-4.7530354e-06
-4.7562217e-06
-4.7596825e-06
-4.7631885e-06
-4.7667186e-06
-4.7702703e-06
-4.7738398e-06
-4.7774229e-06
-4.7810156e-06
-4.7846157e-06
-4.7882036e-06
-4.7915413e-06
-4.7928117e-06
-4.8329892e-06
-4.7230685e-06
-4.9712034e-06
-4.4830153e-06
-5.4135973e-06
-3.774698e-06
-6.5292611e-06
-2.1879889e-06
-8.6767579e-06
4.2934031e-07
-1.1634145e-05
3.2921258e-06
-1.4002221e-05
4.3539342e-06
-1.3498601e-05
9.5847384e-07
-8.1156045e-06
-8.153756e-06
-1.3518423e-06
-1.3196992e-06
-1.0560142e-05
3.9164013e-06
-1.3922224e-05
4.4334383e-06
-1.2853548e-05
2.0742024e-06
-9.9840477e-06
-8.7639107e-07
-7.3622701e-06
-3.0201016e-06
-5.7733146e-06
-4.133897e-06
-5.0637783e-06
-4.575262e-06
-4.8228543e-06
-4.7128448e-06
-4.7527091e-06
-4.7536484e-06
-4.7567433e-06
-4.7601162e-06
-4.7635289e-06
-4.7669633e-06
-4.7704169e-06
-4.7738869e-06
-4.7773687e-06
-4.7808584e-06
-4.7843543e-06
-4.7878394e-06
-4.7910689e-06
-4.7918284e-06
-4.8332507e-06
-4.722019e-06
-4.9705447e-06
-4.4821115e-06
-5.4125482e-06
-3.7735973e-06
-6.5277818e-06
-2.1867656e-06
-8.6746716e-06
4.3063969e-07
-1.1631249e-05
3.2935739e-06
-1.3998443e-05
4.3558545e-06
-1.3494206e-05
9.6147035e-07
-8.1131629e-06
-8.1516761e-06
-1.3532717e-06
-1.3216221e-06
-1.0563181e-05
3.9107008e-06
-1.3923123e-05
4.4288693e-06
-1.2853766e-05
2.0709762e-06
-9.9843725e-06
-8.7850792e-07
-7.3628858e-06
-3.0214839e-06
-5.7740944e-06
-4.134847e-06
-5.0645509e-06
-4.5758717e-06
-4.823909e-06
-4.7125792e-06
-4.753742e-06
-4.7541954e-06
-4.757211e-06
-4.7605056e-06
-4.7638341e-06
-4.7671819e-06
-4.7705467e-06
-4.7739266e-06
-4.7773169e-06
-4.7807134e-06
-4.7841146e-06
-4.7875056e-06
-4.790634e-06
-4.7908635e-06
-4.8334669e-06
-4.7210943e-06
-4.9700045e-06
-4.4813736e-06