/*--------------------------------*- C++ -*----------------------------------*\
  =========                 |
  \\      /  F ield         | OpenFOAM: The Open Source CFD Toolbox
   \\    /   O peration     | Website:  https://openfoam.org
    \\  /    A nd           | Version:  11
     \\/     M anipulation  |
\*---------------------------------------------------------------------------*/
FoamFile
{
    format      ascii;
    class       volScalarField;
    location    "100/Air";
    object      p_rgh;
}
// * * * * * * * * * * * * * * * * * * * * * * * * * * * * * * * * * * * * * //

dimensions      [1 -1 -2 0 0 0 0];

internalField   nonuniform List<scalar> 
124340
(
5.507246e-14
-6.6905427e-10
-1.6942207e-09
-2.4933255e-09
-3.1591249e-09
-3.2483286e-09
-3.7459216e-09
-4.2701651e-09
-5.6019973e-09
-7.111185e-09
-9.3518775e-09
-1.173696e-08
-1.455663e-08
-1.7452016e-08
-2.0519683e-08
-2.3694776e-08
-2.6671692e-08
-2.921308e-08
-3.1130592e-08
-3.2400499e-08
-3.3049917e-08
-3.3189496e-08
-3.2923856e-08
-3.2377797e-08
-3.1652542e-08
-3.0845659e-08
-3.0052205e-08
-2.9368646e-08
-2.8889023e-08
-2.8731778e-08
-2.8997109e-08
-2.9804115e-08
-3.1199965e-08
-3.320163e-08
-3.5695918e-08
-3.8548576e-08
-4.1443398e-08
-4.4289368e-08
-4.7087989e-08
-4.9490017e-08
-5.1690598e-08
-5.317466e-08
-5.4467128e-08
-5.502392e-08
-5.5602971e-08
-5.5790692e-08
-5.6589456e-08
-5.7517332e-08
-5.8624172e-08
-5.9302719e-08
-3.9211939e-10
-9.5357765e-10
-2.0193049e-09
-2.9150513e-09
-3.6848384e-09
-3.8475746e-09
-4.4834561e-09
-5.0880529e-09
-6.5838358e-09
-8.1564841e-09
-1.034944e-08
-1.2517848e-08
-1.4853734e-08
-1.708913e-08
-1.9533872e-08
-2.2362419e-08
-2.5303206e-08
-2.8059112e-08
-3.0253678e-08
-3.179302e-08
-3.2648778e-08
-3.2937216e-08
-3.277103e-08
-3.2290895e-08
-3.1611179e-08
-3.0843001e-08
-3.0091422e-08
-2.9464308e-08
-2.9068705e-08
-2.9037975e-08
-2.9476326e-08
-3.0508053e-08
-3.2137382e-08
-3.4316029e-08
-3.6790845e-08
-3.9364241e-08
-4.1806905e-08
-4.4164707e-08
-4.6644182e-08
-4.8875055e-08
-5.109435e-08
-5.2567265e-08
-5.4001967e-08
-5.4588575e-08
-5.5256692e-08
-5.546384e-08
-5.6342262e-08
-5.733871e-08
-5.8460891e-08
-5.9006157e-08
-4.0428919e-10
-1.225166e-09
-2.5779718e-09
-3.7162395e-09
-4.7017231e-09
-5.0194348e-09
-5.8500525e-09
-6.6290148e-09
-8.2765368e-09
-9.8734568e-09
-1.1959013e-08
-1.3739055e-08
-1.5446165e-08
-1.6848904e-08
-1.8441124e-08
-2.0701047e-08
-2.340679e-08
-2.6305859e-08
-2.8737887e-08
-3.0575354e-08
-3.1724441e-08
-3.2271278e-08
-3.2316918e-08
-3.2012625e-08
-3.1485149e-08
-3.0860348e-08
-3.0255652e-08
-2.9792772e-08
-2.9589781e-08
-2.9793327e-08
-3.0495785e-08
-3.179908e-08
-3.3652292e-08
-3.5924699e-08
-3.8230547e-08
-4.0357733e-08
-4.2101863e-08
-4.3805359e-08
-4.5799662e-08
-4.7737441e-08
-4.9854624e-08
-5.1364621e-08
-5.2930809e-08
-5.3575579e-08
-5.4413472e-08
-5.4719003e-08
-5.5778701e-08
-5.697616e-08
-5.8357681e-08
-5.9141112e-08
-5.1663313e-10
-1.6598588e-09
-3.3155396e-09
-4.7093402e-09
-5.8968095e-09
-6.3647355e-09
-7.3667204e-09
-8.2597959e-09
-9.9945748e-09
-1.1544986e-08
-1.3467076e-08
-1.4873811e-08
-1.6057259e-08
-1.6821292e-08
-1.7785337e-08
-1.952706e-08
-2.1936572e-08
-2.4704892e-08
-2.7236502e-08
-2.9274897e-08
-3.0662068e-08
-3.1451605e-08
-3.1728175e-08
-3.1639933e-08
-3.131536e-08
-3.0887568e-08
-3.0482012e-08
-3.0226572e-08
-3.024327e-08
-3.0675747e-08
-3.1603762e-08
-3.3096886e-08
-3.5034925e-08
-3.7261935e-08
-3.9300474e-08
-4.0981118e-08
-4.2203448e-08
-4.3376254e-08
-4.4945663e-08
-4.6581195e-08
-4.856036e-08
-5.0030607e-08
-5.163714e-08
-5.2392242e-08
-5.3344986e-08
-5.3763217e-08
-5.4999905e-08
-5.6421998e-08
-5.8083577e-08
-5.9174651e-08
-9.8250306e-10
-2.3221226e-09
-4.1468123e-09
-5.70037e-09
-7.0154954e-09
-7.577423e-09
-8.6735181e-09
-9.5896607e-09
-1.1308297e-08
-1.2745739e-08
-1.4490342e-08
-1.5629209e-08
-1.6521254e-08
-1.6965313e-08
-1.7612096e-08
-1.9009533e-08
-2.1125791e-08
-2.3692258e-08
-2.6157317e-08
-2.8231456e-08
-2.9735811e-08
-3.0690931e-08
-3.1156584e-08
-3.1266263e-08
-3.1140949e-08
-3.0910988e-08
-3.070245e-08
-3.0643347e-08
-3.0849503e-08
-3.1449242e-08
-3.2504345e-08
-3.4055492e-08
-3.5961486e-08
-3.8030646e-08
-3.9829317e-08
-4.1205967e-08
-4.213861e-08
-4.30125e-08
-4.4311256e-08
-4.5704869e-08
-4.7531361e-08
-4.8909367e-08
-5.0507522e-08
-5.1283735e-08
-5.2315049e-08
-5.2805872e-08
-5.4156726e-08
-5.5717798e-08
-5.753055e-08
-5.8807775e-08
-1.7875344e-09
-3.1930313e-09
-5.0518537e-09
-6.6593238e-09
-8.0195907e-09
-8.6066456e-09
-9.7157468e-09
-1.0587198e-08
-1.22201e-08
-1.3508561e-08
-1.5088584e-08
-1.6057915e-08
-1.6843376e-08
-1.7220074e-08
-1.7804121e-08
-1.9024634e-08
-2.0897296e-08
-2.3212791e-08
-2.5503733e-08
-2.7498407e-08
-2.9018918e-08
-3.0060685e-08
-3.0659939e-08
-3.092953e-08
-3.0977296e-08
-3.0924828e-08
-3.0890901e-08
-3.0995322e-08
-3.1342779e-08
-3.2045045e-08
-3.3142582e-08
-3.4654452e-08
-3.6438098e-08
-3.8312267e-08
-3.9912402e-08
-4.1120991e-08
-4.1964294e-08
-4.2732997e-08
-4.3898104e-08
-4.5118652e-08
-4.6796616e-08
-4.8051653e-08
-4.9590895e-08
-5.0329582e-08
-5.1376712e-08
-5.18877e-08
-5.3280569e-08
-5.4878067e-08
-5.670429e-08
-5.8025192e-08
-2.8060375e-09
-4.196531e-09
-6.0092741e-09
-7.5953337e-09
-8.9387689e-09
-9.4882084e-09
-1.0558189e-08
-1.1334238e-08
-1.2844239e-08
-1.3975892e-08
-1.5418495e-08
-1.6294127e-08
-1.7088675e-08
-1.7539212e-08
-1.8200834e-08
-1.935289e-08
-2.1039916e-08
-2.3105489e-08
-2.5174959e-08
-2.70285e-08
-2.8497774e-08
-2.9564976e-08
-3.0248435e-08
-3.0639483e-08
-3.0830042e-08
-3.0928185e-08
-3.1040897e-08
-3.1275311e-08
-3.1722104e-08
-3.2474401e-08
-3.3556977e-08
-3.4975281e-08
-3.6599511e-08
-3.8280204e-08
-3.9730115e-08
-4.0861026e-08
-4.1728301e-08
-4.2501653e-08
-4.3620749e-08
-4.4722477e-08
-4.6267528e-08
-4.7387662e-08
-4.8833671e-08
-4.9503555e-08
-5.0503518e-08
-5.0998121e-08
-5.2373228e-08
-5.3936171e-08
-5.5697093e-08
-5.6996355e-08
-3.9129835e-09
-5.2564923e-09
-6.9904283e-09
-8.515249e-09
-9.8088814e-09
-1.0278105e-08
-1.1280646e-08
-1.1937764e-08
-1.3315481e-08
-1.4301685e-08
-1.563662e-08
-1.6466321e-08
-1.7322282e-08
-1.7896922e-08
-1.8683114e-08
-1.9818418e-08
-2.1366406e-08
-2.3206945e-08
-2.505559e-08
-2.6745967e-08
-2.8129591e-08
-2.9183984e-08
-2.9915443e-08
-3.0395582e-08
-3.0700284e-08
-3.092227e-08
-3.1154587e-08
-3.1489836e-08
-3.2004244e-08
-3.2773342e-08
-3.3811496e-08
-3.5117306e-08
-3.6581691e-08
-3.8089508e-08
-3.9428744e-08
-4.0526728e-08
-4.1458066e-08
-4.2277169e-08
-4.3391086e-08
-4.4408706e-08
-4.58397e-08
-4.6827541e-08
-4.8166247e-08
-4.8743317e-08
-4.9672762e-08
-5.0120649e-08
-5.1439717e-08
-5.2930854e-08
-5.4605551e-08
-5.5849132e-08
-5.034084e-09
-6.3236087e-09
-7.9760291e-09
-9.4224165e-09
-1.0654211e-08
-1.1019652e-08
-1.194557e-08
-1.2481034e-08
-1.3734139e-08
-1.4594702e-08
-1.5847652e-08
-1.6655993e-08
-1.758397e-08
-1.8279021e-08
-1.9182968e-08
-2.0315975e-08
-2.1756773e-08
-2.3404961e-08
-2.5055454e-08
-2.6585682e-08
-2.7872676e-08
-2.8894111e-08
-2.9649301e-08
-3.0193231e-08
-3.0587259e-08
-3.0908901e-08
-3.1236981e-08
-3.1649518e-08
-3.2209398e-08
-3.2976936e-08
-3.3960519e-08
-3.5156798e-08
-3.6477374e-08
-3.7839369e-08
-3.9094456e-08
-4.0173586e-08
-4.1166599e-08
-4.2031779e-08
-4.3151182e-08
-4.4103721e-08
-4.5438089e-08
-4.6304122e-08
-4.7536165e-08
-4.801237e-08
-4.8864127e-08
-4.9241173e-08
-5.0490969e-08
-5.1899361e-08
-5.348967e-08
-5.4674534e-08
-6.1278635e-09
-7.3719129e-09
-8.9521027e-09
-1.03192e-08
-1.1478904e-08
-1.1750996e-08
-1.2592278e-08
-1.301489e-08
-1.415883e-08
-1.4914488e-08
-1.6104385e-08
-1.6900014e-08
-1.7888606e-08
-1.8676149e-08
-1.9668076e-08
-2.0794327e-08
-2.2147595e-08
-2.3634924e-08
-2.5116231e-08
-2.6502655e-08
-2.769513e-08
-2.8675062e-08
-2.9438451e-08
-3.002693e-08
-3.048952e-08
-3.0889842e-08
-3.1293332e-08
-3.1764556e-08
-3.2354822e-08
-3.3111894e-08
-3.4041251e-08
-3.5140164e-08
-3.6339732e-08
-3.758074e-08
-3.8767265e-08
-3.9825765e-08
-4.0859956e-08
-4.1753581e-08
-4.2873618e-08
-4.3769651e-08
-4.5021414e-08
-4.577844e-08
-4.6911677e-08
-4.7288359e-08
-4.8062006e-08
-4.8360083e-08
-4.953924e-08
-5.0866757e-08
-5.2384802e-08
-5.352359e-08
-7.1836766e-09
-8.3914235e-09
-9.9114539e-09
-1.1205637e-08
-1.2286141e-08
-1.2490437e-08
-1.3241242e-08
-1.3564664e-08
-1.4616534e-08
-1.5284988e-08
-1.642404e-08
-1.7206131e-08
-1.8235191e-08
-1.9081013e-08
-2.0126249e-08
-2.1234347e-08
-2.2511544e-08
-2.3864752e-08
-2.520562e-08
-2.6467441e-08
-2.7574193e-08
-2.8510849e-08
-2.9272734e-08
-2.989125e-08
-3.0405334e-08
-3.0866516e-08
-3.1328353e-08
-3.1843582e-08
-3.245386e-08
-3.3196883e-08
-3.4076994e-08
-3.509291e-08
-3.619351e-08
-3.7334017e-08
-3.8460439e-08
-3.9490544e-08
-4.0541583e-08
-4.1441592e-08
-4.2551513e-08
-4.3393558e-08
-4.4573105e-08
-4.5233198e-08
-4.6278061e-08
-4.6561038e-08
-4.7260967e-08
-4.7481032e-08
-4.859461e-08
-4.9848667e-08
-5.1308558e-08
-5.2413396e-08
-8.203286e-09
-9.3814921e-09
-1.0851792e-08
-1.2079801e-08
-1.3092837e-08
-1.3228523e-08
-1.390214e-08
-1.4139448e-08
-1.5114359e-08
-1.5708986e-08
-1.6804056e-08
-1.7566996e-08
-1.861524e-08
-1.9487708e-08
-2.0555229e-08
-2.1633194e-08
-2.2841103e-08
-2.4081638e-08
-2.5306588e-08
-2.6462569e-08
-2.7494131e-08
-2.8389122e-08
-2.9143565e-08
-2.9781183e-08
-3.0332887e-08
-3.0840045e-08
-3.1346051e-08
-3.1893602e-08
-3.2516482e-08
-3.3244437e-08
-3.4081473e-08
-3.5027851e-08
-3.6047624e-08
-3.7103589e-08
-3.8174428e-08
-3.9167679e-08
-4.021407e-08
-4.1100469e-08
-4.2188916e-08
-4.2976556e-08
-4.4091326e-08
-4.4664647e-08
-4.563173e-08
-4.5828354e-08
-4.6461278e-08
-4.6608493e-08
-4.7664154e-08
-4.8853316e-08
-5.026693e-08
-5.1346304e-08
-9.1910153e-09
-1.0343845e-08
-1.1771906e-08
-1.2940455e-08
-1.389773e-08
-1.3967612e-08
-1.4577092e-08
-1.4738955e-08
-1.5648826e-08
-1.6178738e-08
-1.7233024e-08
-1.7969276e-08
-1.9018144e-08
-1.9891615e-08
-2.0957043e-08
-2.1995061e-08
-2.313807e-08
-2.428263e-08
-2.5411084e-08
-2.647805e-08
-2.7444249e-08
-2.8300546e-08
-2.9043882e-08
-2.9692314e-08
-3.0270432e-08
-3.0811267e-08
-3.1349737e-08
-3.1920204e-08
-3.255009e-08
-3.3262939e-08
-3.4062684e-08
-3.495066e-08
-3.5903538e-08
-3.6886891e-08
-3.7904838e-08
-3.8854427e-08
-3.98798e-08
-4.0736965e-08
-4.1794412e-08
-4.2526203e-08
-4.3581562e-08
-4.4076273e-08
-4.4975311e-08
-4.5092891e-08
-4.5666174e-08
-4.5746667e-08
-4.6752443e-08
-4.7884467e-08
-4.9260618e-08
-5.0319948e-08
-1.0150631e-08
-1.1280684e-08
-1.2671915e-08
-1.3786402e-08
-1.469782e-08
-1.4706744e-08
-1.5263166e-08
-1.5358649e-08
-1.6211714e-08
-1.6682549e-08
-1.7697085e-08
-1.8399855e-08
-1.9434134e-08
-2.0289398e-08
-2.1335159e-08
-2.2326349e-08
-2.3407775e-08
-2.4469184e-08
-2.5516336e-08
-2.6507834e-08
-2.7417366e-08
-2.8238148e-08
-2.8968022e-08
-2.9620904e-08
-3.0216395e-08
-3.0780801e-08
-3.1342096e-08
-3.1927812e-08
-3.2560217e-08
-3.3258077e-08
-3.4025394e-08
-3.4863434e-08
-3.5759776e-08
-3.6679397e-08
-3.7646451e-08
-3.854786e-08
-3.9540891e-08
-4.0357989e-08
-4.1378146e-08
-4.2052119e-08
-4.3051767e-08
-4.3474711e-08
-4.4314325e-08
-4.4359577e-08
-4.4880586e-08
-4.4898735e-08
-4.5862146e-08
-4.6943673e-08
-4.828872e-08
-4.9331443e-08
-1.1084339e-08
-1.2193546e-08
-1.3552118e-08
-1.4615926e-08
-1.5490563e-08
-1.5441318e-08
-1.5955151e-08
-1.5997483e-08
-1.6793098e-08
-1.7206295e-08
-1.8182697e-08
-1.8846411e-08
-1.9855148e-08
-2.0678803e-08
-2.1693127e-08
-2.2633372e-08
-2.3656151e-08
-2.4644314e-08
-2.5621809e-08
-2.6548562e-08
-2.7408596e-08
-2.8196718e-08
-2.8911522e-08
-2.9563876e-08
-3.0169411e-08
-3.0749108e-08
-3.1325286e-08
-3.1919927e-08
-3.2551115e-08
-3.3233914e-08
-3.3972295e-08
-3.4767017e-08
-3.5614253e-08
-3.6476849e-08
-3.7394896e-08
-3.8245788e-08
-3.9199712e-08
-3.9969506e-08
-4.0947786e-08
-4.1564139e-08
-4.2514368e-08
-4.2867839e-08
-4.365472e-08
-4.3634475e-08
-4.411069e-08
-4.4066478e-08
-4.4994453e-08
-4.6031598e-08
-4.7350391e-08
-4.8378824e-08
-1.1992496e-08
-1.3082326e-08
-1.4411482e-08
-1.5428211e-08
-1.6274591e-08
-1.6164482e-08
-1.6642191e-08
-1.6616471e-08
-1.7379715e-08
-1.7741407e-08
-1.8678882e-08
-1.9298941e-08
-2.0274939e-08
-2.1058284e-08
-2.2034039e-08
-2.292148e-08
-2.388848e-08
-2.4811181e-08
-2.5727925e-08
-2.6598289e-08
-2.7414512e-08
-2.8172312e-08
-2.8870853e-08
-2.9518715e-08
-3.0128349e-08
-3.0716549e-08
-3.1301048e-08
-3.1899349e-08
-3.2526126e-08
-3.3193552e-08
-3.3905468e-08
-3.4661654e-08
-3.5465258e-08
-3.6276037e-08
-3.7147086e-08
-3.7946845e-08
-3.8858188e-08
-3.9576919e-08
-4.0511332e-08
-4.1069753e-08
-4.1972416e-08
-4.2261396e-08
-4.2998343e-08
-4.2923199e-08
-4.3361693e-08
-4.3252258e-08
-4.4150681e-08
-4.5149103e-08
-4.6445485e-08
-4.7461313e-08
-1.2874225e-08
-1.3946028e-08
-1.5248703e-08
-1.6222321e-08
-1.7049494e-08
-1.6869384e-08
-1.7320891e-08
-1.7239323e-08
-1.7966868e-08
-1.8277135e-08
-1.9176563e-08
-1.975002e-08
-2.0689048e-08
-2.1426965e-08
-2.2360396e-08
-2.3194842e-08
-2.4108975e-08
-2.4972463e-08
-2.5835337e-08
-2.6655769e-08
-2.7432598e-08
-2.816189e-08
-2.8843176e-08
-2.9483322e-08
-3.0092332e-08
-3.0683441e-08
-3.1270805e-08
-3.1868382e-08
-3.2487976e-08
-3.3139485e-08
-3.3826633e-08
-3.454774e-08
-3.5311801e-08
-3.6074933e-08
-3.6901163e-08
-3.7650419e-08
-3.8518143e-08
-3.9184379e-08
-4.0074869e-08
-4.0575747e-08
-4.1434342e-08
-4.1663255e-08
-4.2365299e-08
-4.2228877e-08
-4.2628681e-08
-4.2467404e-08
-4.3336069e-08
-4.4298223e-08
-4.5574637e-08
-4.6579025e-08
-1.3727898e-08
-1.4782966e-08
-1.6061592e-08
-1.6993154e-08
-1.7787629e-08
-1.7577051e-08
-1.79882e-08
-1.7854846e-08
-1.854808e-08
-1.8807084e-08
-1.966917e-08
-2.0194324e-08
-2.1094443e-08
-2.178436e-08
-2.2674103e-08
-2.3456512e-08
-2.4320727e-08
-2.5130138e-08
-2.594455e-08
-2.6720059e-08
-2.7460905e-08
-2.8163068e-08
-2.8826268e-08
-2.9456103e-08
-3.0060552e-08
-3.0650009e-08
-3.1235775e-08
-3.1828943e-08
-3.2438986e-08
-3.3073972e-08
-3.3737312e-08
-3.4425951e-08
-3.5153615e-08
-3.5872556e-08
-3.6656296e-08
-3.7356506e-08
-3.8181206e-08
-3.8795062e-08
-3.9642981e-08
-4.0087475e-08
-4.0905726e-08
-4.1077013e-08
-4.1747312e-08
-4.1553486e-08
-4.1918997e-08
-4.1709525e-08
-4.2552067e-08
-4.3480226e-08
-4.4738618e-08
-4.5732522e-08
-1.4551639e-08
-1.5591306e-08
-1.6848071e-08
-1.7739389e-08
-1.8501269e-08
-1.8268444e-08
-1.8639218e-08
-1.8456583e-08
-1.9118056e-08
-1.932585e-08
-2.0151855e-08
-2.0628145e-08
-2.1489099e-08
-2.2130224e-08
-2.2976536e-08
-2.3708589e-08
-2.452584e-08
-2.5285494e-08
-2.6055781e-08
-2.6790311e-08
-2.7497829e-08
-2.8173881e-08
-2.8818332e-08
-2.9435707e-08
-3.0032376e-08
-3.0616478e-08
-3.1196994e-08
-3.1782706e-08
-3.2381166e-08
-3.2998908e-08
-3.3639163e-08
-3.4297262e-08
-3.4991033e-08
-3.5668743e-08
-3.6412411e-08
-3.706553e-08
-3.7848854e-08
-3.841148e-08
-3.921909e-08
-3.9608809e-08
-4.0390327e-08
-4.0505912e-08
-4.1147339e-08
-4.0899077e-08
-4.1236193e-08
-4.0979445e-08
-4.1799856e-08
-4.2696136e-08
-4.393823e-08
-4.4922539e-08
-1.5343609e-08
-1.6369214e-08
-1.7606078e-08
-1.8459129e-08
-1.9194183e-08
-1.8934178e-08
-1.9270663e-08
-1.9040535e-08
-1.9672887e-08
-1.9829786e-08
-2.0621608e-08
-2.1049102e-08
-2.1871698e-08
-2.2464424e-08
-2.3268614e-08
-2.3952421e-08
-2.4725619e-08
-2.5439232e-08
-2.6168967e-08
-2.6865676e-08
-2.7541975e-08
-2.8192719e-08
-2.8817843e-08
-2.9421039e-08
-3.0007326e-08
-3.0583063e-08
-3.115537e-08
-3.1731094e-08
-3.2316235e-08
-3.2916166e-08
-3.3533784e-08
-3.4162862e-08
-3.4824824e-08
-3.5463903e-08
-3.616994e-08
-3.6778195e-08
-3.7522406e-08
-3.8035553e-08
-3.8805702e-08
-3.9142561e-08
-3.9890899e-08
-3.9952574e-08
-4.0568999e-08
-4.0267169e-08
-4.0582628e-08
-4.027879e-08
-4.1080306e-08
-4.1946825e-08
-4.3174211e-08
-4.4149765e-08
-1.6102204e-08
-1.7115029e-08
-1.8333851e-08
-1.9150911e-08
-1.986422e-08
-1.9571819e-08
-1.9878761e-08
-1.9600094e-08
-2.0208595e-08
-2.0316295e-08
-2.1077731e-08
-2.1455896e-08
-2.2241523e-08
-2.2786902e-08
-2.3550913e-08
-2.4188791e-08
-2.492078e-08
-2.559161e-08
-2.628381e-08
-2.6945294e-08
-2.7592089e-08
-2.8218177e-08
-2.8823529e-08
-2.9411197e-08
-2.9985048e-08
-3.0549961e-08
-3.1111725e-08
-3.1675312e-08
-3.2245835e-08
-3.2827384e-08
-3.3422746e-08
-3.4024067e-08
-3.4656024e-08
-3.5258805e-08
-3.5929619e-08
-3.6495327e-08
-3.7203024e-08
-3.766876e-08
-3.8404622e-08
-3.869075e-08
-3.9409265e-08
-3.9418714e-08
-4.0013774e-08
-3.9657495e-08
-3.9960917e-08
-3.9609585e-08
-4.0393926e-08
-4.1233048e-08
-4.2447146e-08
-4.3414712e-08
-1.682611e-08
-1.7827387e-08
-1.9030032e-08
-1.9814472e-08
-2.0510105e-08
-2.0179542e-08
-2.0461686e-08
-2.0136275e-08
-2.072382e-08
-2.0783064e-08
-2.1516445e-08
-2.1846807e-08
-2.2597816e-08
-2.3097561e-08
-2.382375e-08
-2.4418097e-08
-2.5111624e-08
-2.5742572e-08
-2.6399849e-08
-2.7028298e-08
-2.7647038e-08
-2.8249034e-08
-2.8834318e-08
-2.9405385e-08
-2.9965147e-08
-3.0517385e-08
-3.1066559e-08
-3.1616694e-08
-3.2171378e-08
-3.2734115e-08
-3.3307568e-08
-3.3882233e-08
-3.4485801e-08
-3.5054398e-08
-3.5692332e-08
-3.6217807e-08
-3.689171e-08
-3.7312196e-08
-3.8016973e-08
-3.8254341e-08
-3.894643e-08
-3.8905148e-08
-3.948193e-08
-3.9071329e-08
-3.9370938e-08
-3.8973482e-08
-3.9741415e-08
-4.0555502e-08
-4.1757393e-08
-4.2717647e-08
-1.7514357e-08
-1.8505233e-08
-1.9693248e-08
-2.0448297e-08
-2.1125124e-08
-2.0761379e-08
-2.1018918e-08
-2.0648208e-08
-2.1217633e-08
-2.122906e-08
-2.1937146e-08
-2.2221227e-08
-2.2940811e-08
-2.3396402e-08
-2.408728e-08
-2.464048e-08
-2.529818e-08
-2.5891861e-08
-2.6516521e-08
-2.7113836e-08
-2.7705791e-08
-2.8284224e-08
-2.8849273e-08
-2.940297e-08
-2.9947436e-08
-3.0485563e-08
-3.1020684e-08
-3.1556007e-08
-3.2094087e-08
-3.2637752e-08
-3.318966e-08
-3.3738673e-08
-3.4315298e-08
-3.4851697e-08
-3.5458993e-08
-3.5946479e-08
-3.6589318e-08
-3.6966672e-08
-3.764338e-08
-3.7833193e-08
-3.850286e-08
-3.8412033e-08
-3.8969989e-08
-3.8495811e-08
-3.8825319e-08
-3.8373185e-08
-3.9124413e-08
-3.9914848e-08
-4.1105123e-08
-4.2058601e-08
-1.8166351e-08
-1.9147852e-08
-2.0322321e-08
-2.1050816e-08
-2.1712788e-08
-2.1314423e-08
-2.1550222e-08
-2.1135088e-08
-2.168942e-08
-2.1653737e-08
-2.233951e-08
-2.257877e-08
-2.3269724e-08
-2.3683307e-08
-2.4341543e-08
-2.4855921e-08
-2.5480307e-08
-2.6039097e-08
-2.6633213e-08
-2.7201086e-08
-2.7767408e-08
-2.832281e-08
-2.8867591e-08
-2.9403388e-08
-2.993166e-08
-3.0454548e-08
-3.0974572e-08
-3.1494155e-08
-3.2015071e-08
-3.2539541e-08
-3.3070304e-08
-3.3594632e-08
-3.4145726e-08
-3.465171e-08
-3.5230499e-08
-3.5682155e-08
-3.6296604e-08
-3.6632925e-08
-3.7284766e-08
-3.7428894e-08
-3.8079505e-08
-3.7940776e-08
-3.8483731e-08
-3.796047e-08
-3.8295381e-08
-3.7803116e-08
-3.8541701e-08
-3.9310385e-08
-4.0489843e-08
-4.1437147e-08
-1.8781962e-08
-1.975509e-08
-2.0917025e-08
-2.1621141e-08
-2.2272522e-08
-2.1838221e-08
-2.2055956e-08
-2.1596525e-08
-2.2138911e-08
-2.2056838e-08
-2.2723288e-08
-2.2919307e-08
-2.3584699e-08
-2.395827e-08
-2.4586528e-08
-2.5064308e-08
-2.5657762e-08
-2.6183841e-08
-2.6749307e-08
-2.7289276e-08
-2.7831043e-08
-2.836397e-08
-2.8888576e-08
-2.940616e-08
-2.9917626e-08
-3.0424507e-08
-3.0928668e-08
-3.1431885e-08
-3.1935291e-08
-3.2440585e-08
-3.2950672e-08
-3.3451247e-08
-3.3978107e-08
-3.4455376e-08
-3.5007683e-08
-3.5425564e-08
-3.6014194e-08
-3.6311494e-08
-3.6941786e-08
-3.7042482e-08
-3.7676946e-08
-3.7491707e-08
-3.8021851e-08
-3.7459232e-08
-3.778739e-08
-3.7264171e-08
-3.7992498e-08
-3.8741209e-08
-3.9910743e-08
-4.0852508e-08
-1.9361473e-08
-2.0327218e-08
-2.1477685e-08
-2.2159346e-08
-2.2803624e-08
-2.2332378e-08
-2.2536123e-08
-2.2032294e-08
-2.2566053e-08
-2.2438373e-08
-2.3088398e-08
-2.324289e-08
-2.388583e-08
-2.4221317e-08
-2.482221e-08
-2.5265498e-08
-2.5830268e-08
-2.6325641e-08
-2.6864205e-08
-2.7377696e-08
-2.7895937e-08
-2.840698e-08
-2.8911626e-08
-2.9410877e-08
-2.9905171e-08
-3.0395552e-08
-3.0883352e-08
-3.1369825e-08
-3.1855571e-08
-3.2341839e-08
-3.2831772e-08
-3.3309518e-08
-3.3813394e-08
-3.4263541e-08
-3.4791276e-08
-3.5177331e-08
-3.5742562e-08
-3.6002631e-08
-3.6614646e-08
-3.6674093e-08
-3.7295197e-08
-3.7065138e-08
-3.7586281e-08
-3.6990423e-08
-3.7302967e-08
-3.6754096e-08
-3.7475608e-08
-3.8206372e-08
-3.9366899e-08
-4.0303734e-08
-1.9905408e-08
-2.0864725e-08
-2.2004861e-08
-2.2666212e-08
-2.3306161e-08
-2.2796706e-08
-2.2990618e-08
-2.2442419e-08
-2.2971015e-08
-2.279874e-08
-2.3435316e-08
-2.3549885e-08
-2.4173342e-08
-2.4472536e-08
-2.5048589e-08
-2.5459339e-08
-2.5997541e-08
-2.6464063e-08
-2.6977354e-08
-2.7465706e-08
-2.7961423e-08
-2.845121e-08
-2.8936219e-08
-2.9417182e-08
-2.9894146e-08
-3.0367768e-08
-3.0838941e-08
-3.1308501e-08
-3.1776611e-08
-3.2244117e-08
-3.2714473e-08
-3.3170313e-08
-3.3652406e-08
-3.4076936e-08
-3.4581896e-08
-3.4937969e-08
-3.5482056e-08
-3.5706419e-08
-3.6303205e-08
-3.6323106e-08
-3.6933826e-08
-3.6660811e-08
-3.7175453e-08
-3.6545139e-08
-3.6850742e-08
-3.6273722e-08
-3.6990147e-08
-3.7704949e-08
-3.8857345e-08
-3.9789794e-08
-2.0414402e-08
-2.1368119e-08
-2.2499141e-08
-2.3142675e-08
-2.3780357e-08
-2.3231499e-08
-2.3419642e-08
-2.2827289e-08
-2.3354233e-08
-2.3138742e-08
-2.3765471e-08
-2.3840961e-08
-2.4447517e-08
-2.4712041e-08
-2.5265607e-08
-2.5645687e-08
-2.6159314e-08
-2.6598709e-08
-2.7088256e-08
-2.7552741e-08
-2.8026914e-08
-2.8496116e-08
-2.8961905e-08
-2.9424768e-08
-2.9884437e-08
-3.0341221e-08
-3.0795695e-08
-3.1248351e-08
-3.1698991e-08
-3.2148101e-08
-3.2599506e-08
-3.3034359e-08
-3.3495828e-08
-3.389617e-08
-3.4380046e-08
-3.4707896e-08
-3.5233039e-08
-3.5423909e-08
-3.6007415e-08
-3.5989157e-08
-3.6592379e-08
-3.6278471e-08
-3.6788163e-08
-3.6122269e-08
-3.6431287e-08
-3.5823967e-08
-3.653529e-08
-3.7236025e-08
-3.8381112e-08
-3.930965e-08
-2.0889145e-08
-2.1838028e-08
-2.2960948e-08
-2.3588907e-08
-2.4225426e-08
-2.3637962e-08
-2.3824393e-08
-2.3187623e-08
-2.3716284e-08
-2.3459058e-08
-2.4079425e-08
-2.4116568e-08
-2.4708625e-08
-2.4939986e-08
-2.5473309e-08
-2.5824438e-08
-2.6315361e-08
-2.6729236e-08
-2.7196476e-08
-2.7638309e-08
-2.8091905e-08
-2.8541227e-08
-2.8988294e-08
-2.9433364e-08
-2.9875897e-08
-3.0315953e-08
-3.0753823e-08
-3.1189733e-08
-3.162319e-08
-3.2054354e-08
-3.2487474e-08
-3.2902256e-08
-3.3344219e-08
-3.3721738e-08
-3.4186118e-08
-3.4487416e-08
-3.4995621e-08
-3.5154784e-08
-3.5727062e-08
-3.5671894e-08
-3.6270498e-08
-3.5917963e-08
-3.6424161e-08
-3.5727152e-08
-3.6037274e-08
-3.5405106e-08
-3.6110457e-08
-3.6798775e-08
-3.7937269e-08
-3.8862289e-08
-2.1330339e-08
-2.2275015e-08
-2.3390794e-08
-2.4005249e-08
-2.4641988e-08
-2.4016222e-08
-2.4205527e-08
-2.3524258e-08
-2.4057809e-08
-2.3760234e-08
-2.437702e-08
-2.437694e-08
-2.4956851e-08
-2.5156533e-08
-2.5671727e-08
-2.5995526e-08
-2.64655e-08
-2.6855354e-08
-2.7301644e-08
-2.7721991e-08
-2.8155963e-08
-2.8586143e-08
-2.9015054e-08
-2.9442738e-08
-2.9868429e-08
-3.0291993e-08
-3.0713489e-08
-3.1132934e-08
-3.1549596e-08
-3.1963332e-08
-3.2378862e-08
-3.2774484e-08
-3.3198019e-08
-3.3554022e-08
-3.4000388e-08
-3.427673e-08
-3.4769848e-08
-3.4899077e-08
-3.5462147e-08
-3.5371889e-08
-3.5967956e-08
-3.5578785e-08
-3.6082709e-08
-3.5359175e-08
-3.5668106e-08
-3.5015841e-08
-3.5714851e-08
-3.6392324e-08
-3.7524899e-08
-3.8446743e-08
-2.1738652e-08
-2.2679662e-08
-2.3789099e-08
-2.439176e-08
-2.5028919e-08
-2.4360282e-08
-2.4570516e-08
-2.3839844e-08
-2.437973e-08
-2.4042991e-08
-2.4658302e-08
-2.4622427e-08
-2.5192491e-08
-2.5361906e-08
-2.586093e-08
-2.6158928e-08
-2.6609594e-08
-2.6976833e-08
-2.7403453e-08
-2.7803436e-08
-2.8218725e-08
-2.8630521e-08
-2.90419e-08
-2.9452688e-08
-2.9861934e-08
-3.0269352e-08
-3.0674816e-08
-3.1078179e-08
-3.1478515e-08
-3.1875398e-08
-3.2274054e-08
-3.265142e-08
-3.3057561e-08
-3.3393297e-08
-3.3823024e-08
-3.4075932e-08
-3.4555687e-08
-3.4657102e-08
-3.5212432e-08
-3.5088905e-08
-3.5684255e-08
-3.5260285e-08
-3.5763873e-08
-3.5015564e-08
-3.5324646e-08
-3.4654317e-08
-3.5347727e-08
-3.6015928e-08
-3.7143199e-08
-3.8062163e-08
-2.2114695e-08
-2.3052518e-08
-2.4156325e-08
-2.4748793e-08
-2.5386721e-08
-2.4675527e-08
-2.4915603e-08
-2.413567e-08
-2.468291e-08
-2.4308254e-08
-2.4923861e-08
-2.4853549e-08
-2.541575e-08
-2.5556345e-08
-2.6041013e-08
-2.6314668e-08
-2.6747583e-08
-2.7093498e-08
-2.7501654e-08
-2.7882354e-08
-2.8279884e-08
-2.8674076e-08
-2.9068588e-08
-2.9463036e-08
-2.9856318e-08
-3.0248028e-08
-3.0637895e-08
-3.102564e-08
-3.1410184e-08
-3.1790834e-08
-3.2173348e-08
-3.2533349e-08
-3.2923082e-08
-3.3239747e-08
-3.3654088e-08
-3.3885014e-08
-3.4352882e-08
-3.44282e-08
-3.4977349e-08
-3.4822399e-08
-3.5418685e-08
-3.4961756e-08
-3.5467298e-08
-3.4695014e-08
-3.5006578e-08
-3.4319382e-08
-3.5008435e-08
-3.5668958e-08
-3.6791521e-08
-3.7707874e-08
-2.2458969e-08
-2.3394087e-08
-2.4492972e-08
-2.507655e-08
-2.5713164e-08
-2.4964864e-08
-2.5240131e-08
-2.4415628e-08
-2.4968289e-08
-2.455689e-08
-2.5174304e-08
-2.5070952e-08
-2.5627028e-08
-2.5740177e-08
-2.6212106e-08
-2.6462796e-08
-2.6879296e-08
-2.7205206e-08
-2.7596049e-08
-2.7958508e-08
-2.8339188e-08
-2.8716566e-08
-2.9094912e-08
-2.9473628e-08
-2.9851494e-08
-3.0228011e-08
-3.0602787e-08
-3.0975445e-08
-3.1344784e-08
-3.1709854e-08
-3.2076962e-08
-3.2420478e-08
-3.2794736e-08
-3.3093472e-08
-3.3493547e-08
-3.3703883e-08
-3.4161076e-08
-3.4211842e-08
-3.4756205e-08
-3.4571714e-08
-3.5170372e-08
-3.4682296e-08
-3.5191932e-08
-3.4396763e-08
-3.471296e-08
-3.4010372e-08
-3.4696417e-08
-3.5350962e-08
-3.6469444e-08
-3.7383457e-08
-2.2771755e-08
-2.3704749e-08
-2.4799707e-08
-2.5376643e-08
-2.6013175e-08
-2.5242659e-08
-2.5531558e-08
-2.4676762e-08
-2.5235847e-08
-2.4789756e-08
-2.5410201e-08
-2.5275265e-08
-2.5826547e-08
-2.5913721e-08
-2.6374363e-08
-2.6603432e-08
-2.7004806e-08
-2.7311884e-08
-2.7686483e-08
-2.8031708e-08
-2.8396423e-08
-2.8757786e-08
-2.9120693e-08
-2.9484333e-08
-2.984738e-08
-3.0209277e-08
-3.0569529e-08
-3.0927685e-08
-3.1282446e-08
-3.1632616e-08
-3.1985054e-08
-3.2312949e-08
-3.2672608e-08
-3.2954508e-08
-3.334129e-08
-3.3532379e-08
-3.3979854e-08
-3.4007638e-08
-3.4548231e-08
-3.433617e-08
-3.4938238e-08
-3.442091e-08
-3.49362e-08
-3.4119955e-08
-3.4442735e-08
-3.3726783e-08
-3.4411211e-08
-3.5061718e-08
-3.6176867e-08
-3.7088859e-08
-2.305297e-08
-2.3984585e-08
-2.5076926e-08
-2.5649988e-08
-2.628743e-08
-2.5499367e-08
-2.5801651e-08
-2.4920414e-08
-2.5486332e-08
-2.5007973e-08
-2.5632187e-08
-2.54672e-08
-2.6014528e-08
-2.6077341e-08
-2.6527966e-08
-2.6736725e-08
-2.7124104e-08
-2.7413479e-08
-2.7772834e-08
-2.8101794e-08
-2.8451412e-08
-2.8797562e-08
-2.9145776e-08
-2.9495022e-08
-2.9843898e-08
-3.0191798e-08
-3.0538143e-08
-3.0882422e-08
-3.1223263e-08
-3.155923e-08
-3.189773e-08
-3.2210852e-08
-3.2556728e-08
-3.2822844e-08
-3.3197155e-08
-3.3370306e-08
-3.380875e-08
-3.3815209e-08
-3.4352576e-08
-3.4115031e-08
-3.4721108e-08
-3.4176582e-08
-3.4698642e-08
-3.3863666e-08
-3.4194765e-08
-3.3468126e-08
-3.4152465e-08
-3.4801294e-08
-3.5914119e-08
-3.6824539e-08
-2.330203e-08
-2.4233301e-08
-2.5324839e-08
-2.5897423e-08
-2.6537126e-08
-2.5735477e-08
-2.6052296e-08
-2.51476e-08
-2.5720678e-08
-2.521271e-08
-2.584099e-08
-2.5647624e-08
-2.6191256e-08
-2.6231531e-08
-2.6673155e-08
-2.6862862e-08
-2.7237215e-08
-2.7509964e-08
-2.7855001e-08
-2.8168645e-08
-2.8504001e-08
-2.8835743e-08
-2.9170023e-08
-2.9505588e-08
-2.9840976e-08
-3.0175542e-08
-3.0508635e-08
-3.0839697e-08
-3.11673e-08
-3.1489777e-08
-3.181506e-08
-3.2114239e-08
-3.2447082e-08
-3.2698429e-08
-3.3060928e-08
-3.3217437e-08
-3.3647239e-08
-3.3634134e-08
-3.4168272e-08
-3.3907576e-08
-3.4517582e-08
-3.3948351e-08
-3.447761e-08
-3.3626953e-08
-3.3967731e-08
-3.3233864e-08
-3.3919924e-08
-3.4570089e-08
-3.5682097e-08
-3.6591664e-08
-2.3517677e-08
-2.4450138e-08
-2.5543525e-08
-2.6119921e-08
-2.676396e-08
-2.5953729e-08
-2.628375e-08
-2.5359394e-08
-2.5939989e-08
-2.5405243e-08
-2.6037522e-08
-2.5817859e-08
-2.6358396e-08
-2.63772e-08
-2.6810266e-08
-2.6982062e-08
-2.734417e-08
-2.7601324e-08
-2.79329e-08
-2.8232133e-08
-2.8554054e-08
-2.8872195e-08
-2.9193313e-08
-2.9515932e-08
-2.9838543e-08
-3.016047e-08
-3.0481e-08
-3.0799534e-08
-3.1114603e-08
-3.1424313e-08
-3.173709e-08
-3.2023142e-08
-3.2343635e-08
-3.2581193e-08
-3.2932364e-08
-3.307351e-08
-3.3494715e-08
-3.3463897e-08
-3.3994228e-08
-3.3713001e-08
-3.4326048e-08
-3.3735104e-08
-3.4271308e-08
-3.3408736e-08
-3.3760027e-08
-3.3023284e-08
-3.3713347e-08
-3.4368816e-08
-3.5482389e-08
-3.6392329e-08
-2.369785e-08
-2.4633826e-08
-2.5732982e-08
-2.6318576e-08
-2.6969755e-08
-2.6156513e-08
-2.6497621e-08
-2.5557567e-08
-2.6145814e-08
-2.558702e-08
-2.622279e-08
-2.5978962e-08
-2.6516593e-08
-2.6514956e-08
-2.693955e-08
-2.7094517e-08
-2.7444988e-08
-2.7687538e-08
-2.8006434e-08
-2.8292155e-08
-2.8601441e-08
-2.8906793e-08
-2.9215532e-08
-2.952596e-08
-2.9836533e-08
-3.0146547e-08
-3.045523e-08
-3.0761951e-08
-3.1065204e-08
-3.1362885e-08
-3.1663856e-08
-3.1937585e-08
-3.2246344e-08
-3.2471063e-08
-3.281122e-08
-3.2938265e-08
-3.3350577e-08
-3.3303956e-08
-3.3829281e-08
-3.353045e-08
-3.4144778e-08
-3.3535777e-08
-3.4077875e-08
-3.3207586e-08
-3.3569555e-08
-3.2835247e-08
-3.3532316e-08
-3.4198367e-08
-3.5317171e-08
-3.6229733e-08
-2.3839704e-08
-2.4782791e-08
-2.5893473e-08
-2.6495e-08
-2.7156831e-08
-2.6346814e-08
-2.6696283e-08
-2.5744541e-08
-2.6340256e-08
-2.5759598e-08
-2.6397922e-08
-2.6131771e-08
-2.6666193e-08
-2.6645178e-08
-2.7061152e-08
-2.7200355e-08
-2.7539649e-08
-2.7768562e-08
-2.8075505e-08
-2.8348601e-08
-2.8646037e-08
-2.8939417e-08
-2.9236572e-08
-2.9535584e-08
-2.983488e-08
-3.0133733e-08
-3.0431314e-08
-3.0726959e-08
-3.1019135e-08
-3.1305536e-08
-3.1595395e-08
-3.1857596e-08
-3.2155183e-08
-3.2367983e-08
-3.2697284e-08
-3.2811483e-08
-3.3214312e-08
-3.3153983e-08
-3.3672283e-08
-3.3359036e-08
-3.3971635e-08
-3.3349324e-08
-3.3894995e-08
-3.3021747e-08
-3.3393363e-08
-3.2667757e-08
-3.3375862e-08
-3.4059543e-08
-3.5189719e-08
-3.6108469e-08
-2.3939951e-08
-2.4895659e-08
-2.6026299e-08
-2.6652039e-08
-2.7329138e-08
-2.6532661e-08
-2.6878884e-08
-2.5922837e-08
-2.6525881e-08
-2.5924554e-08
-2.6564106e-08
-2.6276889e-08
-2.6807059e-08
-2.6767998e-08
-2.7175086e-08
-2.7299617e-08
-2.7628082e-08
-2.784431e-08
-2.8139976e-08