/*--------------------------------*- C++ -*----------------------------------*\
  =========                 |
  \\      /  F ield         | OpenFOAM: The Open Source CFD Toolbox
   \\    /   O peration     | Website:  https://openfoam.org
    \\  /    A nd           | Version:  11
     \\/     M anipulation  |
\*---------------------------------------------------------------------------*/
FoamFile
{
    format      ascii;
    class       volScalarField;
    location    "90/Air";
    object      p_rgh;
}
// * * * * * * * * * * * * * * * * * * * * * * * * * * * * * * * * * * * * * //

dimensions      [1 -1 -2 0 0 0 0];

internalField   nonuniform List<scalar> 
124340
(
1.4909581e-13
-1.787656e-09
-3.4742044e-09
-4.300097e-09
-5.3234086e-09
-4.8658725e-09
-5.746546e-09
-5.6704803e-09
-7.5652987e-09
-8.9447495e-09
-1.1797479e-08
-1.4418792e-08
-1.7895544e-08
-2.130574e-08
-2.4990859e-08
-2.8775182e-08
-3.2274529e-08
-3.5252107e-08
-3.7466658e-08
-3.8922193e-08
-3.9645253e-08
-3.9783304e-08
-3.9445493e-08
-3.8788292e-08
-3.7922664e-08
-3.696379e-08
-3.6021626e-08
-3.5210761e-08
-3.4634302e-08
-3.4442647e-08
-3.4739491e-08
-3.568415e-08
-3.7316856e-08
-3.969385e-08
-4.2659685e-08
-4.6100625e-08
-4.9614836e-08
-5.3012735e-08
-5.647223e-08
-5.9193398e-08
-6.2002402e-08
-6.3385316e-08
-6.5244696e-08
-6.5352912e-08
-6.6357735e-08
-6.6034995e-08
-6.7253596e-08
-6.8285377e-08
-7.0069058e-08
-7.1858181e-08
-4.6982739e-10
-2.1953979e-09
-3.9582584e-09
-4.8317994e-09
-5.9640412e-09
-5.5438649e-09
-6.5652223e-09
-6.6190902e-09
-8.6748679e-09
-1.0143575e-08
-1.2906054e-08
-1.5346471e-08
-1.8252016e-08
-2.0935591e-08
-2.389638e-08
-2.7287169e-08
-3.0728459e-08
-3.3944205e-08
-3.6460889e-08
-3.8212177e-08
-3.91632e-08
-3.9471329e-08
-3.9249808e-08
-3.8674463e-08
-3.7868665e-08
-3.6962112e-08
-3.6075853e-08
-3.5336325e-08
-3.4859885e-08
-3.4814939e-08
-3.5305986e-08
-3.6507454e-08
-3.8392249e-08
-4.0969441e-08
-4.3898659e-08
-4.7030974e-08
-5.0002931e-08
-5.2844612e-08
-5.5959578e-08
-5.8467156e-08
-6.1355872e-08
-6.2636013e-08
-6.4744032e-08
-6.4812456e-08
-6.5964004e-08
-6.5616497e-08
-6.6921523e-08
-6.7950915e-08
-6.9797862e-08
-7.1503646e-08
-9.2083869e-11
-2.3599334e-09
-4.5327391e-09
-5.6656743e-09
-7.0714649e-09
-6.791171e-09
-8.0573975e-09
-8.3002635e-09
-1.0530858e-08
-1.2031251e-08
-1.4696365e-08
-1.6706841e-08
-1.8940627e-08
-2.0707893e-08
-2.2698221e-08
-2.5484679e-08
-2.8670034e-08
-3.2004969e-08
-3.4780737e-08
-3.6850859e-08
-3.8114415e-08
-3.8704283e-08
-3.8725462e-08
-3.8353178e-08
-3.7724229e-08
-3.6984859e-08
-3.6269505e-08
-3.571928e-08
-3.546094e-08
-3.5677055e-08
-3.6454866e-08
-3.794678e-08
-4.0071481e-08
-4.2751381e-08
-4.5476196e-08
-4.8098569e-08
-5.0294303e-08
-5.2414787e-08
-5.5006653e-08
-5.7201614e-08
-5.9967736e-08
-6.1327584e-08
-6.3581676e-08
-6.3656543e-08
-6.5065652e-08
-6.4789424e-08
-6.6342083e-08
-6.7587509e-08
-6.9813965e-08
-7.2047051e-08
1.0402359e-10
-2.7332409e-09
-5.2872144e-09
-6.6962074e-09
-8.338858e-09
-8.1848305e-09
-9.7106337e-09
-1.0070271e-08
-1.2392628e-08
-1.3814145e-08
-1.6321605e-08
-1.7924773e-08
-1.9624102e-08
-2.0713171e-08
-2.2049142e-08
-2.426356e-08
-2.7104064e-08
-3.0312526e-08
-3.3152166e-08
-3.5432431e-08
-3.6948422e-08
-3.7803505e-08
-3.8073078e-08
-3.7939361e-08
-3.7537158e-08
-3.7019069e-08
-3.6526856e-08
-3.6207907e-08
-3.6191903e-08
-3.6657701e-08
-3.7674583e-08
-3.9362917e-08
-4.1562727e-08
-4.4188148e-08
-4.6611297e-08
-4.8746133e-08
-5.0381704e-08
-5.1928281e-08
-5.4073214e-08
-5.5935951e-08
-5.8555086e-08
-5.9890725e-08
-6.2159839e-08
-6.2386751e-08
-6.3930931e-08
-6.375875e-08
-6.5531319e-08
-6.7020233e-08
-6.9608125e-08
-7.2392449e-08
-2.8214486e-10
-3.4416815e-09
-6.1728686e-09
-7.7385865e-09
-9.5220093e-09
-9.4952096e-09
-1.10782e-08
-1.1486621e-08
-1.3803978e-08
-1.5106213e-08
-1.743249e-08
-1.874003e-08
-2.0140112e-08
-2.0894273e-08
-2.1917691e-08
-2.3755477e-08
-2.626785e-08
-2.9246095e-08
-3.2002212e-08
-3.4307565e-08
-3.5943917e-08
-3.6975225e-08
-3.7448507e-08
-3.7530929e-08
-3.734831e-08
-3.7049687e-08
-3.6776078e-08
-3.6674e-08
-3.6863357e-08
-3.7510237e-08
-3.8660763e-08
-4.0404027e-08
-4.256181e-08
-4.5000694e-08
-4.715881e-08
-4.8959746e-08
-5.0301131e-08
-5.1525219e-08
-5.3387094e-08
-5.4976773e-08
-5.7436363e-08
-5.867393e-08
-6.0933401e-08
-6.1176863e-08
-6.2842562e-08
-6.2723672e-08
-6.4633577e-08
-6.625694e-08
-6.9004471e-08
-7.2092114e-08
-1.1894629e-09
-4.4587193e-09
-7.1886158e-09
-8.7897411e-09
-1.061554e-08
-1.0620299e-08
-1.2207059e-08
-1.2581162e-08
-1.4813795e-08
-1.5953467e-08
-1.8109068e-08
-1.9221125e-08
-2.0511289e-08
-2.1187864e-08
-2.2161821e-08
-2.3794691e-08
-2.603662e-08
-2.8731779e-08
-3.1292834e-08
-3.3506717e-08
-3.5159019e-08
-3.6283458e-08
-3.6903188e-08
-3.7162008e-08
-3.717176e-08
-3.7070815e-08
-3.6991671e-08
-3.7071158e-08
-3.7418092e-08
-3.8177144e-08
-3.9374223e-08
-4.1071684e-08
-4.3091888e-08
-4.530883e-08
-4.7248521e-08
-4.8854309e-08
-5.0111525e-08
-5.1210161e-08
-5.2926898e-08
-5.4311728e-08
-5.6614696e-08
-5.7714223e-08
-5.992002e-08
-6.0095305e-08
-6.1830192e-08
-6.1695798e-08
-6.3658022e-08
-6.5294595e-08
-6.8024231e-08
-7.1192754e-08
-2.4135501e-09
-5.6703891e-09
-8.3066365e-09
-9.8616851e-09
-1.1664249e-08
-1.1614451e-08
-1.3168742e-08
-1.3445356e-08
-1.5553944e-08
-1.6520076e-08
-1.8530931e-08
-1.952234e-08
-2.0814973e-08
-2.1548539e-08
-2.260685e-08
-2.4140028e-08
-2.6173679e-08
-2.8587926e-08
-3.0908236e-08
-3.2970629e-08
-3.4572275e-08
-3.5728224e-08
-3.6444957e-08
-3.6841162e-08
-3.701239e-08
-3.7081741e-08
-3.7168681e-08
-3.7395689e-08
-3.7857343e-08
-3.8675641e-08
-3.9862276e-08
-4.1460009e-08
-4.3307065e-08
-4.5305169e-08
-4.7078631e-08
-4.8576743e-08
-4.9858695e-08
-5.0935645e-08
-5.2592475e-08
-5.382454e-08
-5.5986186e-08
-5.6930593e-08
-5.9049686e-08
-5.9136544e-08
-6.0832511e-08
-6.0656206e-08
-6.2604691e-08
-6.4175343e-08
-6.678873e-08
-6.9943441e-08
-3.7433413e-09
-6.9606275e-09
-9.4844537e-09
-1.0952166e-08
-1.2703428e-08
-1.2534644e-08
-1.4037163e-08
-1.4185688e-08
-1.6160706e-08
-1.6962682e-08
-1.8857947e-08
-1.9774989e-08
-2.1118117e-08
-2.1951076e-08
-2.3131355e-08
-2.4612985e-08
-2.64877e-08
-2.8646973e-08
-3.0731498e-08
-3.2622644e-08
-3.4139909e-08
-3.5289017e-08
-3.606653e-08
-3.6567406e-08
-3.687106e-08
-3.7083524e-08
-3.7309127e-08
-3.7654091e-08
-3.8198453e-08
-3.9042644e-08
-4.0190025e-08
-4.1670413e-08
-4.3345989e-08
-4.5147345e-08
-4.6796289e-08
-4.822833e-08
-4.9567729e-08
-5.0657835e-08
-5.2293063e-08
-5.3404972e-08
-5.5444453e-08
-5.6232132e-08
-5.8252988e-08
-5.8259041e-08
-5.9810799e-08
-5.9594302e-08
-6.1492377e-08
-6.2960859e-08
-6.5450857e-08
-6.8546701e-08
-5.0971923e-09
-8.2631032e-09
-1.0681499e-08
-1.2050831e-08
-1.3752757e-08
-1.341263e-08
-1.4865572e-08
-1.4879793e-08
-1.6729296e-08
-1.7384739e-08
-1.9190024e-08
-2.0056186e-08
-2.1457724e-08
-2.2381411e-08
-2.3669675e-08
-2.5113125e-08
-2.6862748e-08
-2.8801295e-08
-3.0673601e-08
-3.2401349e-08
-3.3822329e-08
-3.494379e-08
-3.5757249e-08
-3.6336749e-08
-3.6747176e-08
-3.7077711e-08
-3.7417237e-08
-3.7855753e-08
-3.8460007e-08
-3.9311223e-08
-4.0409205e-08
-4.1775806e-08
-4.3298779e-08
-4.4930577e-08
-4.6482498e-08
-4.786139e-08
-4.9250255e-08
-5.0350223e-08
-5.1973616e-08
-5.2983029e-08
-5.4918228e-08
-5.5554962e-08
-5.7473011e-08
-5.7363465e-08
-5.8816504e-08
-5.8519035e-08
-6.0349134e-08
-6.1706194e-08
-6.4081948e-08
-6.7114261e-08
-6.4276485e-09
-9.5433369e-09
-1.1873678e-08
-1.3144518e-08
-1.4768621e-08
-1.4318246e-08
-1.5688181e-08
-1.5572924e-08
-1.7312618e-08
-1.7839838e-08
-1.957448e-08
-2.0397825e-08
-2.184539e-08
-2.282987e-08
-2.4192349e-08
-2.5594251e-08
-2.7239778e-08
-2.8990023e-08
-3.0674485e-08
-3.2269961e-08
-3.3590042e-08
-3.467393e-08
-3.5506738e-08
-3.6144422e-08
-3.6639521e-08
-3.7065747e-08
-3.749746e-08
-3.8009603e-08
-3.8657433e-08
-3.9505799e-08
-4.0553993e-08
-4.1819632e-08
-4.3214105e-08
-4.4701903e-08
-4.617255e-08
-4.7497105e-08
-4.8912108e-08
-5.0003209e-08
-5.1610593e-08
-5.2525419e-08
-5.4371443e-08
-5.4866256e-08
-5.6688126e-08
-5.6454906e-08
-5.7823023e-08
-5.7435649e-08
-5.9197119e-08
-6.0446392e-08
-6.2729776e-08
-6.5703169e-08
-7.717238e-09
-1.078815e-08
-1.3048635e-08
-1.4227022e-08
-1.5756182e-08
-1.5254541e-08
-1.6520967e-08
-1.6285389e-08
-1.7932917e-08
-1.8347357e-08
-2.0024572e-08
-2.0804289e-08
-2.2277694e-08
-2.3288637e-08
-2.4689085e-08
-2.6040333e-08
-2.7594569e-08
-2.9187703e-08
-3.0729768e-08
-3.2175344e-08
-3.3418001e-08
-3.4464191e-08
-3.5305601e-08
-3.5985502e-08
-3.6546521e-08
-3.7048868e-08
-3.755393e-08
-3.8123355e-08
-3.8802792e-08
-3.9643514e-08
-4.0645735e-08
-4.182471e-08
-4.3113581e-08
-4.4479312e-08
-4.5877147e-08
-4.714117e-08
-4.8557215e-08
-4.9617856e-08
-5.1200269e-08
-5.2022824e-08
-5.3791869e-08
-5.4154084e-08
-5.5891291e-08
-5.553291e-08
-5.6826047e-08
-5.6353937e-08
-5.8050579e-08
-5.9201084e-08
-6.1413869e-08
-6.4339663e-08
-8.9627085e-09
-1.1996009e-08
-1.4201585e-08
-1.5297453e-08
-1.6755717e-08
-1.6179791e-08
-1.7366802e-08
-1.702156e-08
-1.8593954e-08
-1.8906726e-08
-2.0535302e-08
-2.1267383e-08
-2.2744611e-08
-2.3751241e-08
-2.5158527e-08
-2.6449675e-08
-2.7920306e-08
-2.9379197e-08
-3.0797756e-08
-3.2126731e-08
-3.3295026e-08
-3.4303405e-08
-3.5145816e-08
-3.5855274e-08
-3.6466439e-08
-3.7028055e-08
-3.7590309e-08
-3.8203489e-08
-3.8905316e-08
-3.9736029e-08
-4.0697002e-08
-4.1802765e-08
-4.3004776e-08
-4.4265796e-08
-4.5595736e-08
-4.6792768e-08
-4.8188923e-08
-4.9200312e-08
-5.0748972e-08
-5.1478781e-08
-5.3181127e-08
-5.3418646e-08
-5.5084911e-08
-5.4606944e-08
-5.5840918e-08
-5.5268557e-08
-5.6914579e-08
-5.797958e-08
-6.0140149e-08
-6.303098e-08
-1.0167338e-08
-1.3168307e-08
-1.5329817e-08
-1.6350218e-08
-1.7757935e-08
-1.7097956e-08
-1.8226685e-08
-1.7780939e-08
-1.9290705e-08
-1.9507563e-08
-2.1093041e-08
-2.1766024e-08
-2.323529e-08
-2.4212732e-08
-2.5603081e-08
-2.682679e-08
-2.8219183e-08
-2.9562236e-08
-3.0876441e-08
-3.2108334e-08
-3.3210253e-08
-3.4182456e-08
-3.502044e-08
-3.5749385e-08
-3.6397533e-08
-3.7004083e-08
-3.7609785e-08
-3.8255438e-08
-3.8972216e-08
-3.9791497e-08
-4.0714364e-08
-4.1760714e-08
-4.2888696e-08
-4.405825e-08
-4.5323743e-08
-4.6449097e-08
-4.7810343e-08
-4.8758269e-08
-5.0266597e-08
-5.0902015e-08
-5.2546827e-08
-5.2665346e-08
-5.4273481e-08
-5.368299e-08
-5.4874225e-08
-5.4186576e-08
-5.579623e-08
-5.6788048e-08
-5.8910057e-08
-6.1775377e-08
-1.1335245e-08
-1.4306729e-08
-1.6431637e-08
-1.7381565e-08
-1.8756717e-08
-1.8006456e-08
-1.9094104e-08
-1.8544656e-08
-2.0011539e-08
-2.013929e-08
-2.1684069e-08
-2.2292772e-08
-2.373855e-08
-2.4668932e-08
-2.6026143e-08
-2.71779e-08
-2.8496448e-08
-2.9738297e-08
-3.096372e-08
-3.2112512e-08
-3.3156031e-08
-3.4094113e-08
-3.4923655e-08
-3.5664005e-08
-3.6338192e-08
-3.6977567e-08
-3.7615067e-08
-3.828372e-08
-3.900927e-08
-3.9816667e-08
-4.0709019e-08
-4.1695205e-08
-4.2763164e-08
-4.3852191e-08
-4.5056292e-08
-4.6107528e-08
-4.7424582e-08
-4.8299337e-08
-4.9763036e-08
-5.0302797e-08
-5.1897013e-08
-5.1902654e-08
-5.3471166e-08
-5.2764418e-08
-5.3918908e-08
-5.3127718e-08
-5.4705778e-08
-5.5631848e-08
-5.7723904e-08
-6.0569203e-08
-1.2468933e-08
-1.541226e-08
-1.7505664e-08
-1.8389855e-08
-1.9749967e-08
-1.889747e-08
-1.9963245e-08
-1.9316692e-08
-2.0747315e-08
-2.0787936e-08
-2.2294187e-08
-2.2832043e-08
-2.4245606e-08
-2.5116895e-08
-2.6431023e-08
-2.7508868e-08
-2.8757634e-08
-2.9909843e-08
-3.1058456e-08
-3.2135102e-08
-3.3126827e-08
-3.4032723e-08
-3.4850708e-08
-3.5595865e-08
-3.6286973e-08
-3.6948995e-08
-3.7608417e-08
-3.8292047e-08
-3.9020952e-08
-3.9815122e-08
-4.0678163e-08
-4.1613948e-08
-4.2627759e-08
-4.3644094e-08
-4.4789737e-08
-4.5766312e-08
-4.7034509e-08
-4.7830259e-08
-4.9247902e-08
-4.9690779e-08
-5.1241791e-08
-5.113686e-08
-5.2673682e-08
-5.18532e-08
-5.2986942e-08
-5.2095589e-08
-5.3647605e-08
-5.4514097e-08
-5.6581629e-08
-5.9409715e-08
-1.3568932e-08
-1.648491e-08
-1.8550238e-08
-1.9374866e-08
-2.0741666e-08
-1.9756764e-08
-2.0824721e-08
-2.0083998e-08
-2.1486617e-08
-2.1436467e-08
-2.2910471e-08
-2.3373361e-08
-2.4750078e-08
-2.5554718e-08
-2.6820516e-08
-2.7824454e-08
-2.9007451e-08
-3.007925e-08
-3.1160293e-08
-3.2173324e-08
-3.3118501e-08
-3.3993757e-08
-3.4797673e-08
-3.5542173e-08
-3.6242606e-08
-3.6918748e-08
-3.7591773e-08
-3.8283584e-08
-3.9011116e-08
-3.9790654e-08
-4.0625987e-08
-4.1516703e-08
-4.2481666e-08
-4.3431559e-08
-4.4521814e-08
-4.5424606e-08
-4.6642704e-08
-4.7356733e-08
-4.872969e-08
-4.9074328e-08
-5.0589465e-08
-5.0374793e-08
-5.1889822e-08
-5.0954639e-08
-5.2080112e-08
-5.1096804e-08
-5.2626074e-08
-5.3437151e-08
-5.5483392e-08
-5.8295598e-08
-1.4634473e-08
-1.7524167e-08
-1.9563596e-08
-2.0327055e-08
-2.1688329e-08
-2.0618828e-08
-2.1676806e-08
-2.0839487e-08
-2.2222379e-08
-2.2080017e-08
-2.3524876e-08
-2.3909098e-08
-2.5247402e-08
-2.59811e-08
-2.7196779e-08
-2.8128194e-08
-2.9249467e-08
-3.0248347e-08
-3.1269056e-08
-3.2225097e-08
-3.3127816e-08
-3.3973513e-08
-3.476121e-08
-3.5500562e-08
-3.6203903e-08
-3.6887028e-08
-3.7566972e-08
-3.8261048e-08
-3.8983221e-08
-3.9746595e-08
-4.0555328e-08
-4.1404534e-08
-4.232483e-08
-4.3213382e-08
-4.4251512e-08
-4.5082278e-08
-4.6251013e-08
-4.6880724e-08
-4.8214069e-08
-4.8460537e-08
-4.9947487e-08
-4.9622022e-08
-5.1125127e-08
-5.0084513e-08
-5.1199315e-08
-5.0128233e-08
-5.1643269e-08
-5.240249e-08
-5.4429548e-08
-5.7226607e-08
-1.5663932e-08
-1.8528355e-08
-2.0543037e-08
-2.1242886e-08
-2.2597799e-08
-2.1467209e-08
-2.2513859e-08
-2.1574023e-08
-2.2946585e-08
-2.2710648e-08
-2.4130782e-08
-2.4433674e-08
-2.573439e-08
-2.6395168e-08
-2.756134e-08
-2.84225e-08
-2.9486114e-08
-3.0418264e-08
-3.1384411e-08
-3.2288652e-08
-3.3152056e-08
-3.3968987e-08
-3.473862e-08
-3.5469078e-08
-3.6170127e-08
-3.6854307e-08
-3.7535328e-08
-3.8226825e-08
-3.894013e-08
-3.9685963e-08
-4.0468606e-08
-4.1278968e-08
-4.2157934e-08
-4.2989436e-08
-4.3978909e-08
-4.4740186e-08
-4.5862623e-08
-4.6409121e-08
-4.7706918e-08
-4.7854936e-08
-4.9320995e-08
-4.888187e-08
-5.0368073e-08
-4.9168148e-08
-5.0421954e-08
-4.9211682e-08
-5.0704233e-08
-5.1411717e-08
-5.3420671e-08
-5.6203108e-08
-1.6655224e-08
-1.9495606e-08
-2.1486702e-08
-2.2118884e-08
-2.3445962e-08
-2.2320471e-08
-2.3332901e-08
-2.2283744e-08
-2.3654217e-08
-2.3322624e-08
-2.472343e-08
-2.4943176e-08
-2.6208911e-08
-2.6796336e-08
-2.7915234e-08
-2.8708856e-08
-2.9718838e-08
-3.0589472e-08
-3.1505776e-08
-3.236234e-08
-3.3188882e-08
-3.397751e-08
-3.4727756e-08
-3.5446129e-08
-3.6140573e-08
-3.6820924e-08
-3.7498145e-08
-3.8183009e-08
-3.8884442e-08
-3.9611415e-08
-4.0368308e-08
-4.1141833e-08
-4.1982228e-08
-4.2760384e-08
-4.3704769e-08
-4.4399401e-08
-4.5479641e-08
-4.5944557e-08
-4.7212078e-08
-4.726174e-08
-4.8715284e-08
-4.8163517e-08
-4.9651885e-08
-4.8334955e-08
-4.9627298e-08
-4.8325708e-08
-4.9806935e-08
-5.0465018e-08
-5.245714e-08
-5.5225622e-08
-1.7606288e-08
-2.0424549e-08
-2.2394859e-08
-2.2967117e-08
-2.4309649e-08
-2.3099205e-08
-2.4115783e-08
-2.2962926e-08
-2.4341295e-08
-2.3911878e-08
-2.5299545e-08
-2.5434885e-08
-2.6669518e-08
-2.7184116e-08
-2.8258998e-08
-2.8988016e-08
-2.9948332e-08
-3.0761924e-08
-3.1632349e-08
-3.2444584e-08
-3.323626e-08
-3.3997004e-08
-3.472655e-08
-3.5430369e-08
-3.6114635e-08
-3.6787153e-08
-3.7456593e-08
-3.8131519e-08
-3.8818394e-08
-3.9525496e-08
-4.0256836e-08
-4.0995135e-08
-4.1799333e-08
-4.2527395e-08
-4.3430239e-08
-4.4061175e-08
-4.5103705e-08
-4.5488708e-08
-4.6732105e-08
-4.6683731e-08
-4.8133101e-08
-4.7468331e-08
-4.8969608e-08
-4.7540475e-08
-4.8862206e-08
-4.7473872e-08
-4.8951544e-08
-4.956268e-08
-5.1539228e-08
-5.4294585e-08
-1.8515073e-08
-2.1313512e-08
-2.3264996e-08
-2.3776293e-08
-2.5119935e-08
-2.3861898e-08
-2.4876843e-08
-2.3610811e-08
-2.5005363e-08
-2.4475696e-08
-2.5856995e-08
-2.5906952e-08
-2.7115176e-08
-2.7558056e-08
-2.8592854e-08
-2.9260235e-08
-3.0174758e-08
-3.0935209e-08
-3.1763169e-08
-3.2533861e-08
-3.3292334e-08
-3.4025526e-08
-3.4733397e-08
-3.542058e-08
-3.609187e-08
-3.6753275e-08
-3.741161e-08
-3.8073618e-08
-3.8744515e-08
-3.9430551e-08
-4.01365e-08
-4.0840934e-08
-4.1611057e-08
-4.2291952e-08
-4.3156739e-08
-4.3726769e-08
-4.4736346e-08
-4.5043281e-08
-4.6268951e-08
-4.6122814e-08
-4.7576191e-08
-4.6797234e-08
-4.8319851e-08
-4.6774192e-08
-4.813881e-08
-4.6660242e-08
-4.8138474e-08
-4.8704843e-08
-5.066703e-08
-5.3410221e-08
-1.937982e-08
-2.2161393e-08
-2.4096984e-08
-2.4553982e-08
-2.5907895e-08
-2.4575371e-08
-2.5603451e-08
-2.4224921e-08
-2.5644773e-08
-2.5012455e-08
-2.6394532e-08
-2.6358135e-08
-2.7545019e-08
-2.7917713e-08
-2.8916829e-08
-2.9525455e-08
-3.0397941e-08
-3.1108697e-08
-3.1897192e-08
-3.2628722e-08
-3.3355428e-08
-3.4061372e-08
-3.4746848e-08
-3.5415794e-08
-3.6071806e-08
-3.6719513e-08
-3.7364284e-08
-3.8011246e-08
-3.8664366e-08
-3.9328701e-08
-4.0009489e-08
-4.0681296e-08
-4.1419266e-08
-4.2055577e-08
-4.2885635e-08
-4.3397298e-08
-4.4378956e-08
-4.4609844e-08
-4.5824119e-08
-4.5580345e-08
-4.7045766e-08
-4.6151063e-08
-4.7700768e-08
-4.6028709e-08
-4.7466114e-08
-4.5889144e-08
-4.7367167e-08
-4.7891263e-08
-4.9840391e-08
-5.2572495e-08
-2.0199688e-08
-2.2966966e-08
-2.4888911e-08
-2.5297204e-08
-2.6655902e-08
-2.5253608e-08
-2.6297901e-08
-2.4804701e-08
-2.6258787e-08
-2.5521361e-08
-2.6911589e-08
-2.6787698e-08
-2.7958233e-08
-2.8262747e-08
-2.9230836e-08
-2.9783456e-08
-3.0617503e-08
-3.1281637e-08
-3.2033355e-08
-3.2727807e-08
-3.3424041e-08
-3.4103068e-08
-3.4765654e-08
-3.5415165e-08
-3.6054166e-08
-3.6686186e-08
-3.7315343e-08
-3.7945582e-08
-3.8579707e-08
-3.9221789e-08
-3.9877762e-08
-4.0518094e-08
-4.1225703e-08
-4.181983e-08
-4.261819e-08
-4.3073425e-08
-4.4032633e-08
-4.4189629e-08
-4.5398675e-08
-4.5057274e-08
-4.654278e-08
-4.5530876e-08
-4.7116522e-08
-4.5339476e-08
-4.6806898e-08
-4.5158833e-08
-4.6635908e-08
-4.7121566e-08
-4.9059063e-08
-5.1781222e-08
-2.097434e-08
-2.3729253e-08
-2.5638991e-08
-2.60048e-08
-2.7372309e-08
-2.5890429e-08
-2.6961993e-08
-2.5349855e-08
-2.6847317e-08
-2.6002246e-08
-2.7408216e-08
-2.7195967e-08
-2.8356097e-08
-2.8593563e-08
-2.9534955e-08
-3.0033983e-08
-3.0832998e-08
-3.1453239e-08
-3.2170617e-08
-3.2829859e-08
-3.349683e-08
-3.4149333e-08
-3.478875e-08
-3.5417962e-08
-3.6038663e-08
-3.6653462e-08
-3.7265497e-08
-3.7877737e-08
-3.8492009e-08
-3.9111577e-08
-3.9743094e-08
-4.0353065e-08
-4.1032e-08
-4.1586109e-08
-4.2355818e-08
-4.2757159e-08
-4.3698571e-08
-4.378391e-08
-4.4993324e-08
-4.4554041e-08
-4.6067407e-08
-4.4936194e-08
-4.6567906e-08
-4.4685925e-08
-4.617996e-08
-4.4466777e-08
-4.5944647e-08
-4.639636e-08
-4.8323165e-08
-5.1036287e-08
-2.170359e-08
-2.4447421e-08
-2.6345022e-08
-2.6672303e-08
-2.8051758e-08
-2.6476508e-08
-2.7613273e-08
-2.5863608e-08
-2.7410929e-08
-2.6455391e-08
-2.7884797e-08
-2.7583666e-08
-2.8740828e-08
-2.8910752e-08
-2.9829231e-08
-3.0276725e-08
-3.1043893e-08
-3.1622711e-08
-3.2307995e-08
-3.2933742e-08
-3.3572604e-08
-3.4199049e-08
-3.4815221e-08
-3.5423572e-08
-3.6025055e-08
-3.6621528e-08
-3.7215347e-08
-3.7808688e-08
-3.840255e-08
-3.8999488e-08
-3.9607044e-08
-4.0187749e-08
-4.0839611e-08
-4.1355701e-08
-4.2099677e-08
-4.2449681e-08
-4.3377326e-08
-4.3392902e-08
-4.4608097e-08
-4.4070778e-08
-4.5619393e-08
-4.4366251e-08
-4.6051919e-08
-4.4054223e-08
-4.5596838e-08
-4.3811586e-08
-4.5295872e-08
-4.5717029e-08
-4.7632834e-08
-5.0337378e-08
-2.2387837e-08
-2.5121797e-08
-2.7007912e-08
-2.7302662e-08
-2.8712662e-08
-2.703776e-08
-2.8207691e-08
-2.6340122e-08
-2.7950222e-08
-2.6881439e-08
-2.8341634e-08
-2.7950444e-08
-2.9110387e-08
-2.9213721e-08
-3.0113407e-08
-3.0511319e-08
-3.1249674e-08
-3.178931e-08
-3.2444591e-08
-3.3038438e-08
-3.3650319e-08
-3.4251246e-08
-3.4844278e-08
-3.5431467e-08
-3.6013135e-08
-3.6590543e-08
-3.7165403e-08
-3.7739262e-08
-3.8312429e-08
-3.8886806e-08
-3.9470971e-08
-4.0023494e-08
-4.0649806e-08
-4.1129724e-08
-4.1850625e-08
-4.2151383e-08
-4.306875e-08
-4.3015229e-08
-4.4242326e-08
-4.3607329e-08
-4.5199135e-08
-4.3825244e-08
-4.5562819e-08
-4.3445621e-08
-4.5057826e-08
-4.3193539e-08
-4.468717e-08
-4.5081766e-08
-4.6986912e-08
-4.9683518e-08
-2.3027871e-08
-2.5753106e-08
-2.7628067e-08
-2.7891572e-08
-2.9312619e-08
-2.7467336e-08
-2.8869113e-08
-2.6807476e-08
-2.8468609e-08
-2.7281042e-08
-2.8779006e-08
-2.8296378e-08
-2.9464621e-08
-2.9502281e-08
-3.0387282e-08
-3.0737429e-08
-3.1449846e-08
-3.1952358e-08
-3.2579605e-08
-3.3143056e-08
-3.3729068e-08
-3.430509e-08
-3.4875242e-08
-3.5441192e-08
-3.6002728e-08
-3.656063e-08
-3.7116092e-08
-3.7670158e-08
-3.8222566e-08
-3.877461e-08
-3.9336029e-08
-3.9861446e-08
-4.0463661e-08
-4.0909134e-08
-4.1609385e-08
-4.1862793e-08
-4.2773024e-08
-4.2651081e-08
-4.3895742e-08
-4.3163263e-08
-4.4802794e-08
-4.329899e-08
-4.5115386e-08
-4.2879342e-08
-4.4549288e-08
-4.2612331e-08
-4.4115982e-08
-4.4488267e-08
-4.6383744e-08
-4.9073299e-08
-2.3624733e-08
-2.6342343e-08
-2.8206964e-08
-2.8443177e-08
-2.9879507e-08
-2.7931675e-08
-2.9435859e-08
-2.723723e-08
-2.8962953e-08
-2.7654099e-08
-2.9197149e-08
-2.8621805e-08
-2.9803755e-08
-2.9776481e-08
-3.0650731e-08
-3.0954786e-08
-3.1643983e-08
-3.2111265e-08
-3.2712336e-08
-3.3246825e-08
-3.3808068e-08
-3.4359866e-08
-3.4907534e-08
-3.545236e-08
-3.5993683e-08
-3.6531887e-08
-3.7067762e-08
-3.7601956e-08
-3.8133729e-08
-3.86638e-08
-3.9203176e-08
-3.9702554e-08
-4.0282067e-08
-4.0694733e-08
-4.1376565e-08
-4.1584532e-08
-4.2490458e-08
-4.2300966e-08
-4.3568204e-08
-4.2738814e-08
-4.4433386e-08
-4.2793531e-08
-4.4702695e-08
-4.2347981e-08
-4.4067884e-08
-4.2070606e-08
-4.358237e-08
-4.3935199e-08
-4.582191e-08
-4.8505328e-08
-2.4179452e-08
-2.6890542e-08
-2.874572e-08
-2.8958836e-08
-3.0412881e-08
-2.8375969e-08
-2.9963022e-08
-2.76327e-08
-2.9433579e-08
-2.800125e-08
-2.9596522e-08
-2.8927248e-08
-3.0128073e-08
-3.0036501e-08
-3.0903691e-08
-3.1163201e-08
-3.1831742e-08
-3.2265574e-08
-3.2842195e-08
-3.334909e-08
-3.3886655e-08
-3.4414969e-08
-3.4940662e-08
-3.5464637e-08
-3.5985849e-08
-3.6504386e-08
-3.7020701e-08
-3.7535131e-08
-3.804655e-08
-3.8555114e-08
-3.9073198e-08
-3.9547595e-08
-4.0105742e-08
-4.0487174e-08
-4.1152609e-08
-4.131689e-08
-4.2221318e-08
-4.1965848e-08
-4.3259878e-08
-4.2335574e-08
-4.4097219e-08
-4.2339628e-08
-4.4291624e-08
-4.1841375e-08
-4.3612989e-08
-4.1568654e-08
-4.3085682e-08
-4.3421321e-08
-4.5300076e-08
-4.7978251e-08
-2.4693016e-08
-2.7397967e-08
-2.9245055e-08
-2.943873e-08
-3.0910253e-08
-2.8786173e-08
-3.0463503e-08
-2.7999064e-08
-2.9882366e-08
-2.8323768e-08
-2.9977564e-08
-2.9213404e-08
-3.0437866e-08
-3.0282603e-08
-3.1146127e-08
-3.136255e-08
-3.2012833e-08
-3.2414828e-08
-3.296868e-08
-3.3449298e-08
-3.3964271e-08
-3.4469888e-08
-3.497421e-08
-3.5477738e-08
-3.5979107e-08
-3.647818e-08
-3.6975134e-08
-3.7470068e-08
-3.7961539e-08
-3.8449152e-08
-3.894673e-08
-3.9397197e-08
-3.9935243e-08
-4.0286964e-08
-4.0937818e-08
-4.1060146e-08
-4.1965445e-08
-4.1645535e-08
-4.2970234e-08
-4.1953953e-08
-4.3773226e-08
-4.1895122e-08
-4.392143e-08
-4.137851e-08
-4.318809e-08
-4.110526e-08
-4.2624491e-08
-4.2945378e-08
-4.4817e-08
-4.7490683e-08
-2.5166663e-08
-2.7866665e-08
-2.9705749e-08
-2.9882138e-08
-3.1366444e-08
-2.9156138e-08
-3.0945183e-08
-2.8347532e-08
-3.0306454e-08
-2.8622016e-08
-3.0340656e-08
-2.9481145e-08
-3.0733433e-08
-3.0515104e-08
-3.1377943e-08
-3.1552757e-08
-3.218704e-08
-3.2558756e-08
-3.3091399e-08
-3.3547002e-08
-3.4040452e-08
-3.4524197e-08
-3.5007829e-08
-3.5491423e-08
-3.597335e-08
-3.6453303e-08
-3.6931238e-08
-3.7407071e-08
-3.7879105e-08
-3.8346396e-08
-3.8824273e-08
-3.9251854e-08
-3.9770993e-08
-4.0094483e-08
-4.0732351e-08
-4.08145e-08
-4.1722608e-08
-4.133938e-08
-4.2693611e-08
-4.1574202e-08
-4.3462832e-08
-4.1416586e-08
-4.3640175e-08
-4.0965829e-08
-4.2800626e-08
-4.0678146e-08
-4.2197796e-08
-4.250644e-08
-4.4371633e-08
-4.7041372e-08
-2.5601186e-08
-2.8296878e-08
-3.0128905e-08
-3.0291444e-08
-3.1789001e-08
-2.9503097e-08
-3.1388517e-08
-2.8661656e-08
-3.0715994e-08
-2.8899043e-08
-3.0688124e-08
-2.9731648e-08
-3.1015013e-08
-3.0734402e-08
-3.1599111e-08
-3.1733835e-08
-3.2354209e-08
-3.2697138e-08
-3.3210058e-08
-3.3641841e-08
-3.4114815e-08
-3.4577543e-08
-3.5041222e-08
-3.5505483e-08
-3.5968476e-08
-3.6429773e-08
-3.6889147e-08
-3.7346378e-08
-3.7799569e-08
-3.8247224e-08
-3.870622e-08
-3.911195e-08
-3.9613289e-08
-3.9909993e-08
-4.0536233e-08
-4.0580054e-08
-4.1492502e-08
-4.104825e-08
-4.243439e-08
-4.1208729e-08
-4.3171244e-08
-4.0956692e-08
-4.3387558e-08
-4.0584986e-08
-4.2447022e-08
-4.0285054e-08
-4.1804614e-08
-4.2103678e-08
-4.3963098e-08
-4.662934e-08
-2.5997251e-08
-2.8689441e-08
-3.0515543e-08
-3.0668254e-08
-3.217939e-08
-2.982538e-08
-3.1798135e-08
-2.8937334e-08
-3.1117456e-08
-2.915976e-08
-3.1016064e-08
-2.996456e-08
-3.1282784e-08
-3.0940996e-08
-3.1809413e-08
-3.190586e-08
-3.2514256e-08
-3.2829829e-08
-3.3324333e-08
-3.3733519e-08
-3.4187047e-08
-3.4629632e-08
-3.5074143e-08
-3.5519738e-08
-3.5964395e-08
-3.6407594e-08
-3.6848961e-08
-3.7288174e-08
-3.7723181e-08
-3.8151931e-08
-3.8592867e-08
-3.8977773e-08
-3.9462321e-08
-3.973366e-08
-4.0349333e-08
-4.0356746e-08
-4.1274527e-08
-4.0772946e-08
-4.2201057e-08
-4.0888615e-08
-4.2883434e-08
-4.056151e-08
-4.3105911e-08
-4.0221423e-08
-4.2122457e-08
-3.9923923e-08
-4.1443756e-08
-4.1736349e-08
-4.3590758e-08
-4.6253958e-08
-2.6355138e-08
-2.9044814e-08
-3.0866379e-08
-3.1013601e-08
-3.2538019e-08
-3.0127468e-08
-3.2186274e-08
-2.9213099e-08
-3.1473128e-08
-2.9393144e-08
-3.1323347e-08
-3.0182166e-08
-3.1537673e-08
-3.1135928e-08
-3.2009643e-08
-3.2069306e-08
-3.2667226e-08
-3.295679e-08
-3.3434095e-08
-3.3821816e-08
-3.4256892e-08
-3.468022e-08
-3.5106382e-08
-3.5534034e-08
-3.596102e-08
-3.6386758e-08
-3.6810748e-08
-3.7232595e-08
-3.765013e-08
-3.8060743e-08
-3.8484434e-08
-3.8849536e-08
-3.9318194e-08
-3.956557e-08
-4.0171393e-08
-4.0144497e-08
-4.1068645e-08
-4.0513765e-08
-4.197771e-08
-4.0586958e-08
-4.2618927e-08
-4.0202258e-08
-4.2836913e-08
-3.98792e-08
-4.1824874e-08
-3.9594265e-08
-4.1114538e-08
-4.1404074e-08
-4.3254387e-08
-4.5915095e-08
-2.6674556e-08
-2.9362974e-08
-3.1181669e-08
-3.1327944e-08
-3.2864863e-08
-3.0415338e-08
-3.2540709e-08
-2.9480435e-08
-3.1790323e-08
-2.9592747e-08
-3.1627281e-08
-3.0390258e-08
-3.1780354e-08
-3.132032e-08
-3.2200703e-08
-3.2224769e-08
-3.2813208e-08
-3.3078026e-08
-3.3539201e-08
-3.3906557e-08
-3.4324135e-08
-3.4729101e-08
-3.5137757e-08
-3.5548235e-08
-3.5958273e-08
-3.636725e-08
-3.6774557e-08
-3.7179745e-08
-3.7580558e-08
-3.7973832e-08
-3.8381083e-08
-3.8727402e-08
-3.9180954e-08
-3.9405773e-08
-4.0002068e-08
-3.9942976e-08
-4.0872891e-08
-4.0266946e-08
-4.1747689e-08
-4.025159e-08
-4.2426272e-08
-3.9886257e-08
-4.2590385e-08
-3.9560831e-08
-4.1552527e-08
-3.9295608e-08
-4.0816401e-08
-4.1106849e-08
-4.295432e-08
-4.5613314e-08
-2.6954484e-08
-2.9643341e-08
-3.1461239e-08
-3.1610772e-08
-3.3155672e-08
-3.0678856e-08
-3.2852646e-08
-2.9700998e-08
-3.2124486e-08
-2.9798142e-08
-3.1912404e-08
-3.0582876e-08
-3.2010851e-08
-3.1495264e-08
-3.2382868e-08
-3.2372654e-08
-3.2952233e-08
-3.3193556e-08
-3.3639529e-08
-3.3987589e-08
-3.438859e-08
-3.4776096e-08
-3.5168109e-08
-3.5562217e-08
-3.5956079e-08
-3.6349047e-08
-3.674042e-08
-3.7129701e-08
-3.7514578e-08
-3.7891335e-08
-3.8282936e-08
-3.86115e-08
-3.9050616e-08
-3.9254335e-08
-3.9841022e-08
-3.975172e-08
-4.0683976e-08
-4.0025153e-08
-4.1530045e-08
-3.9930251e-08
-4.225706e-08
-3.9599001e-08
-4.236318e-08
-3.9265444e-08
-4.1303398e-08
-3.9028206e-08
-4.0549144e-08
-4.084513e-08
-4.2691629e-08
-4.5350141e-08
-2.7193056e-08
-2.9884854e-08
-3.1705137e-08
-3.1863363e-08
-3.3413237e-08
-3.0916237e-08
-3.3124288e-08
-2.9872211e-08
-3.2484223e-08
-3.0030988e-08
-3.2164952e-08
-3.0759232e-08
-3.2227442e-08
-3.1660981e-08
-3.2555679e-08
-3.2513177e-08
-3.3084257e-08
-3.330339e-08
-3.3734952e-08
-3.4064779e-08
-3.4450086e-08
-3.4821045e-08
-3.5197294e-08
-3.5575867e-08
-3.5954366e-08
-3.6332126e-08
-3.6708354e-08
-3.7082522e-08
-3.7452276e-08
-3.7813366e-08
-3.8190093e-08
-3.8501951e-08
-3.8927188e-08
-3.9111364e-08
-3.9688069e-08
-3.9571184e-08
-4.0503218e-08
-3.979686e-08
-4.1326898e-08
-3.9647775e-08
-4.2081244e-08
-3.933127e-08
-4.2150793e-08
-3.8992513e-08
-4.10721e-08
-3.8789671e-08
-4.0311859e-08
-4.0619597e-08
-4.2468217e-08
-4.5128369e-08
-2.7387273e-08
-3.0085821e-08
-3.191369e-08
-3.208785e-08
-3.3641585e-08
-3.1134477e-08
-3.3368596e-08
-3.0028231e-08
-3.2822262e-08
-3.0255018e-08
-3.2409746e-08
-3.0933978e-08
-3.2430857e-08
-3.1818302e-08
-3.2719238e-08
-3.2646672e-08
-3.3209223e-08
-3.3407527e-08
-3.382533e-08
-3.4137992e-08
-3.4508459e-08
-3.4863796e-08
-3.5225177e-08
-3.5589078e-08
-3.5953065e-08
-3.6316455e-08
-3.6678373e-08
-3.7038257e-08
-3.7393729e-08
-3.7740029e-08
-3.8102645e-08
-3.8398873e-08
-3.8810684e-08
-3.8977002e-08
-3.9543136e-08
-3.9402219e-08
-4.0331631e-08
-3.9585319e-08
-4.1137164e-08
-3.9407259e-08
-4.1887808e-08
-3.907883e-08
-4.1948014e-08
-3.8738802e-08
-4.0856376e-08
-3.8579826e-08
-4.010426e-08
-4.0431327e-08
-4.2287086e-08
-4.4952402e-08
-2.7532759e-08
-3.0243995e-08
-3.2087755e-08
-3.2287409e-08
-3.3846133e-08
-3.1341037e-08
-3.3596407e-08
-3.0188808e-08
-3.3106953e-08
-3.042234e-08
-3.2682938e-08
-3.1115428e-08
-3.2628427e-08
-3.1970105e-08
-3.2874102e-08
-3.2773491e-08
-3.3327019e-08
-3.3505922e-08
-3.3910489e-08
-3.4207079e-08
-3.4563537e-08
-3.4904197e-08
-3.5251621e-08
-3.5601746e-08
-3.5952107e-08
-3.6302005e-08
-3.6650485e-08
-3.6996951e-08
-3.7339007e-08
-3.7671425e-08
-3.8020688e-08
-3.8302396e-08
-3.8701137e-08
-3.8851392e-08
-3.94061e-08
-3.9245379e-08
-4.0170367e-08
-3.9397417e-08
-4.0948162e-08
-3.9185896e-08
-4.1691375e-08
-3.8845469e-08
-4.1753146e-08
-3.8506227e-08
-4.0648549e-08
-3.8393248e-08
-3.9924275e-08
-4.0280939e-08
-4.2152133e-08
-4.4828476e-08
-2.7624385e-08
-3.0357224e-08
-3.2229457e-08
-3.246669e-08
-3.4033574e-08
-3.1542774e-08
-3.3816417e-08
-3.036901e-08
-3.3340395e-08
-3.0569228e-08
-3.294489e-08
-3.1291492e-08
-3.2821402e-08
-3.2117646e-08
-3.3020327e-08
-3.2893736e-08
-3.3437421e-08
-3.3598452e-08
-3.3990207e-08