/*--------------------------------*- C++ -*----------------------------------*\
  =========                 |
  \\      /  F ield         | OpenFOAM: The Open Source CFD Toolbox
   \\    /   O peration     | Website:  https://openfoam.org
    \\  /    A nd           | Version:  11
     \\/     M anipulation  |
\*---------------------------------------------------------------------------*/
FoamFile
{
    format      ascii;
    class       volScalarField;
    location    "80/Air";
    object      p_rgh;
}
// * * * * * * * * * * * * * * * * * * * * * * * * * * * * * * * * * * * * * //

dimensions      [1 -1 -2 0 0 0 0];

internalField   nonuniform List<scalar> 
124340
(
-3.941335e-13
-4.581284e-09
-7.8352169e-09
-8.1063318e-09
-1.0393263e-08
-7.9942247e-09
-1.0775418e-08
-8.4914473e-09
-1.2278978e-08
-1.2414052e-08
-1.6791874e-08
-1.9291483e-08
-2.388576e-08
-2.7885472e-08
-3.2408427e-08
-3.7014244e-08
-4.1180857e-08
-4.47328e-08
-4.7317297e-08
-4.9017199e-08
-4.983048e-08
-4.9972524e-08
-4.9539263e-08
-4.874048e-08
-4.7692339e-08
-4.6536212e-08
-4.5400955e-08
-4.4427806e-08
-4.3723749e-08
-4.349474e-08
-4.3831358e-08
-4.4966996e-08
-4.6912041e-08
-4.9801751e-08
-5.3384197e-08
-5.7615486e-08
-6.1976572e-08
-6.6012129e-08
-7.0547283e-08
-7.3304171e-08
-7.7524487e-08
-7.7827188e-08
-8.1808099e-08
-7.9500583e-08
-8.2606268e-08
-8.0494532e-08
-8.3030215e-08
-8.3623261e-08
-8.7018755e-08
-9.157855e-08
-5.3382461e-10
-5.2151201e-09
-8.4691815e-09
-8.7087717e-09
-1.1189155e-08
-8.7579099e-09
-1.1722651e-08
-9.6296164e-09
-1.3463087e-08
-1.3950176e-08
-1.7976935e-08
-2.0478969e-08
-2.4302388e-08
-2.7524736e-08
-3.1148988e-08
-3.5339904e-08
-3.9406816e-08
-4.3230899e-08
-4.6133508e-08
-4.8165971e-08
-4.9236641e-08
-4.9578098e-08
-4.928275e-08
-4.8589197e-08
-4.7621539e-08
-4.6536707e-08
-4.5477261e-08
-4.4596973e-08
-4.4015735e-08
-4.3960535e-08
-4.4515914e-08
-4.5943077e-08
-4.8164981e-08
-5.1285938e-08
-5.4791386e-08
-5.8701425e-08
-6.2393752e-08
-6.5791736e-08
-6.9947206e-08
-7.2415073e-08
-7.6858411e-08
-7.6796678e-08
-8.1296551e-08
-7.8804169e-08
-8.219403e-08
-7.9936024e-08
-8.2653827e-08
-8.316976e-08
-8.6550684e-08
-9.1191847e-08
6.7154085e-10
-5.1537544e-09
-9.0189113e-09
-9.4814224e-09
-1.2399458e-08
-1.0041206e-08
-1.3335233e-08
-1.1505347e-08
-1.5464103e-08
-1.6062572e-08
-1.9969172e-08
-2.2003588e-08
-2.511158e-08
-2.7327499e-08
-2.9901892e-08
-3.3395562e-08
-3.7150593e-08
-4.1092949e-08
-4.4243068e-08
-4.6631449e-08
-4.8038748e-08
-4.86959e-08
-4.8661477e-08
-4.8212216e-08
-4.7453887e-08
-4.6567207e-08
-4.5709452e-08
-4.5052392e-08
-4.4726707e-08
-4.496402e-08
-4.5829548e-08
-4.7577906e-08
-5.0043007e-08
-5.3274881e-08
-5.6519592e-08
-5.9837668e-08
-6.2672389e-08
-6.5280252e-08
-6.8861224e-08
-7.1028719e-08
-7.5245389e-08
-7.5430945e-08
-7.9886943e-08
-7.7572054e-08
-8.1304733e-08
-7.9013342e-08
-8.2156207e-08
-8.2849814e-08
-8.6807431e-08
-9.2577456e-08
1.4415914e-09
-5.4422555e-09
-9.7942322e-09
-1.0500275e-08
-1.3763327e-08
-1.1454028e-08
-1.5111521e-08
-1.3384373e-08
-1.747091e-08
-1.7987098e-08
-2.1736155e-08
-2.3316692e-08
-2.5884289e-08
-2.7367864e-08
-2.9247052e-08
-3.2127109e-08
-3.5487878e-08
-3.9286789e-08
-4.2500818e-08
-4.508155e-08
-4.6748533e-08
-4.76921e-08
-4.7941106e-08
-4.7750472e-08
-4.724688e-08
-4.6611187e-08
-4.600627e-08
-4.5609492e-08
-4.5546911e-08
-4.6064586e-08
-4.7187217e-08
-4.9144123e-08
-5.1668783e-08
-5.4823976e-08
-5.7725289e-08
-6.0509702e-08
-6.2743871e-08
-6.4724024e-08
-6.7836578e-08
-6.9648938e-08
-7.3677336e-08
-7.3938791e-08
-7.8227107e-08
-7.6265906e-08
-8.0126854e-08
-7.7893234e-08
-8.136352e-08
-8.2264865e-08
-8.6686988e-08
-9.3501972e-08
1.1974872e-09
-6.2364514e-09
-1.0754409e-08
-1.1583868e-08
-1.5035821e-08
-1.2799609e-08
-1.6592559e-08
-1.4919715e-08
-1.8989985e-08
-1.9387519e-08
-2.2958088e-08
-2.4198422e-08
-2.6468559e-08
-2.7585539e-08
-2.9163452e-08
-3.1621663e-08
-3.46172e-08
-3.8148758e-08
-4.1253209e-08
-4.3855258e-08
-4.5646869e-08
-4.6778994e-08
-4.7252747e-08
-4.7299965e-08
-4.7041228e-08
-4.6651983e-08
-4.6292736e-08
-4.6136904e-08
-4.6300802e-08
-4.7016575e-08
-4.8282221e-08
-5.0288206e-08
-5.2754896e-08
-5.5699994e-08
-5.8304239e-08
-6.0706262e-08
-6.2649459e-08
-6.4264937e-08
-6.7089241e-08
-6.8583774e-08
-7.2443214e-08
-7.2625856e-08
-7.6852485e-08
-7.4956586e-08
-7.9003221e-08
-7.6760354e-08
-8.0433105e-08
-8.1416144e-08
-8.5982865e-08
-9.3330867e-08
1.2947746e-10
-7.4799664e-09
-1.1930499e-08
-1.2746192e-08
-1.6238167e-08
-1.4134373e-08
-1.7747797e-08
-1.6132239e-08
-2.0122718e-08
-2.0340587e-08
-2.3747416e-08
-2.4745111e-08
-2.6910533e-08
-2.7917109e-08
-2.9467713e-08
-3.1669157e-08
-3.4367597e-08
-3.7576631e-08
-4.0460291e-08
-4.29617e-08
-4.4772482e-08
-4.600692e-08
-4.664552e-08
-4.689048e-08
-4.6849014e-08
-4.6683714e-08
-4.6544906e-08
-4.6594262e-08
-4.6936371e-08
-4.7776939e-08
-4.9096417e-08
-5.1048011e-08
-5.3362178e-08
-5.6053886e-08
-5.8420606e-08
-6.0574648e-08
-6.2448169e-08
-6.3895164e-08
-6.6569683e-08
-6.7802522e-08
-7.1509942e-08
-7.1532491e-08
-7.5708468e-08
-7.3711471e-08
-7.7936054e-08
-7.5583843e-08
-7.9347296e-08
-8.0273297e-08
-8.4750122e-08
-9.22495e-08
-1.3935026e-09
-8.9966147e-09
-1.3277074e-08
-1.3995313e-08
-1.7447441e-08
-1.5312952e-08
-1.8831407e-08
-1.7143583e-08
-2.1016801e-08
-2.1031408e-08
-2.430374e-08
-2.5128389e-08
-2.7298721e-08
-2.8318775e-08
-2.9968051e-08
-3.2011031e-08
-3.4480983e-08
-3.7367025e-08
-3.9993399e-08
-4.233342e-08
-4.4097139e-08
-4.5371581e-08
-4.6125784e-08
-4.6529398e-08
-4.6674379e-08
-4.6705541e-08
-4.6758773e-08
-4.6978751e-08
-4.745668e-08
-4.8368604e-08
-4.968619e-08
-5.1531335e-08
-5.3658377e-08
-5.609752e-08
-5.8286379e-08
-6.0274274e-08
-6.2180956e-08
-6.3548913e-08
-6.6163123e-08
-6.7176327e-08
-7.0757323e-08
-7.0577103e-08
-7.4697982e-08
-7.2546609e-08
-7.6821726e-08
-7.4338362e-08
-7.8121129e-08
-7.8906399e-08
-8.3187049e-08
-9.0665827e-08
-3.0856331e-09
-1.0626738e-08
-1.4726338e-08
-1.5329983e-08
-1.8802404e-08
-1.6320362e-08
-1.9851123e-08
-1.8052652e-08
-2.1806888e-08
-2.1616692e-08
-2.4786667e-08
-2.547933e-08
-2.769983e-08
-2.8766413e-08
-3.054151e-08
-3.2471175e-08
-3.4767214e-08
-3.7358379e-08
-3.9734775e-08
-4.1892043e-08
-4.3576672e-08
-4.4853089e-08
-4.5686907e-08
-4.6216182e-08
-4.6518277e-08
-4.6718428e-08
-4.6935857e-08
-4.7296364e-08
-4.7878043e-08
-4.8827477e-08
-5.0115218e-08
-5.1839282e-08
-5.3780222e-08
-5.5988145e-08
-5.8045198e-08
-5.9906012e-08
-6.1871017e-08
-6.3186404e-08
-6.5778903e-08
-6.6596246e-08
-7.0078443e-08
-6.9674409e-08
-7.3736118e-08
-7.1401558e-08
-7.5666832e-08
-7.3033618e-08
-7.6797404e-08
-7.74047e-08
-8.1480906e-08
-8.8875014e-08
-4.8065778e-09
-1.2273696e-08
-1.6216111e-08
-1.6683855e-08
-2.0085672e-08
-1.7419092e-08
-2.0879933e-08
-1.8931369e-08
-2.2581489e-08
-2.2192697e-08
-2.5289472e-08
-2.586905e-08
-2.814707e-08
-2.9246312e-08
-3.112595e-08
-3.2956747e-08
-3.5115873e-08
-3.7447011e-08
-3.959981e-08
-4.1581762e-08
-4.3175123e-08
-4.4432235e-08
-4.5320136e-08
-4.5948044e-08
-4.63805e-08
-4.6723457e-08
-4.7079206e-08
-4.7554773e-08
-4.8216542e-08
-4.9183894e-08
-5.0430918e-08
-5.2034526e-08
-5.3816022e-08
-5.5816526e-08
-5.7770746e-08
-5.9517733e-08
-6.152842e-08
-6.2782895e-08
-6.5366199e-08
-6.5998297e-08
-6.9407527e-08
-6.8770472e-08
-7.2782592e-08
-7.0233806e-08
-7.4493469e-08
-7.1677539e-08
-7.541722e-08
-7.5842603e-08
-7.9745387e-08
-8.705428e-08
-6.4910459e-09
-1.3888044e-08
-1.7709455e-08
-1.8039395e-08
-2.1370789e-08
-1.8544058e-08
-2.1935765e-08
-1.9816319e-08
-2.3386206e-08
-2.2806099e-08
-2.5853435e-08
-2.6323856e-08
-2.8648602e-08
-2.9748561e-08
-3.1695508e-08
-3.3427342e-08
-3.5471587e-08
-3.7576452e-08
-3.9538324e-08
-4.1363634e-08
-4.2865565e-08
-4.4093137e-08
-4.5016917e-08
-4.572134e-08
-4.6260208e-08
-4.672172e-08
-4.7192161e-08
-4.7761138e-08
-4.8485059e-08
-4.9459246e-08
-5.0663798e-08
-5.2159172e-08
-5.3806498e-08
-5.5626066e-08
-5.7492977e-08
-5.9126977e-08
-6.115874e-08
-6.2331193e-08
-6.4905929e-08
-6.5354748e-08
-6.8715125e-08
-6.7839551e-08
-7.1818739e-08
-6.9036557e-08
-7.3305291e-08
-7.0287823e-08
-7.4011596e-08
-7.4267978e-08
-7.8039147e-08
-8.527402e-08
-8.1153078e-09
-1.5450396e-08
-1.9186415e-08
-1.9384277e-08
-2.2664009e-08
-1.9680668e-08
-2.302343e-08
-2.0720638e-08
-2.4238035e-08
-2.3471496e-08
-2.6487884e-08
-2.6844792e-08
-2.9198907e-08
-3.0264867e-08
-3.2241937e-08
-3.3869553e-08
-3.581145e-08
-3.7721433e-08
-3.9525916e-08
-4.1207838e-08
-4.2628784e-08
-4.3822882e-08
-4.4769181e-08
-4.5531903e-08
-4.6156046e-08
-4.6714145e-08
-4.727804e-08
-4.792189e-08
-4.8693766e-08
-4.9668402e-08
-5.0831869e-08
-5.2233413e-08
-5.3770496e-08
-5.5433055e-08
-5.7220467e-08
-5.8737854e-08
-6.0766507e-08
-6.183431e-08
-6.4397848e-08
-6.465999e-08
-6.7995982e-08
-6.6874363e-08
-7.0842043e-08
-6.7814506e-08
-7.2111498e-08
-6.8883111e-08
-7.2601572e-08
-7.2708134e-08
-7.6393434e-08
-8.3565439e-08
-9.6767687e-09
-1.6958092e-08
-2.0636006e-08
-2.0708387e-08
-2.3952137e-08
-2.0829687e-08
-2.4141438e-08
-2.1645316e-08
-2.5137516e-08
-2.4183669e-08
-2.7185075e-08
-2.741691e-08
-2.9786566e-08
-3.0788106e-08
-3.2764796e-08
-3.4282498e-08
-3.6130208e-08
-3.7871732e-08
-3.9544559e-08
-4.1103463e-08
-4.2450039e-08
-4.3610298e-08
-4.4569236e-08
-4.5375277e-08
-4.6066327e-08
-4.6701497e-08
-4.7340028e-08
-4.8042758e-08
-4.8850783e-08
-4.9822006e-08
-5.0947347e-08
-5.2267185e-08
-5.371426e-08
-5.5238984e-08
-5.6952218e-08
-5.834903e-08
-6.0355918e-08
-6.1299657e-08
-6.385017e-08
-6.3917804e-08
-6.7241347e-08
-6.5875854e-08
-6.9858167e-08
-6.6577308e-08
-7.0921362e-08
-6.7480204e-08
-7.1208593e-08
-7.1181101e-08
-7.4810724e-08
-8.193124e-08
-1.1179884e-08
-1.8414443e-08
-2.2052539e-08
-2.2008065e-08
-2.5248996e-08
-2.1962635e-08
-2.5280293e-08
-2.2582834e-08
-2.6077363e-08
-2.4932914e-08
-2.7931894e-08
-2.802784e-08
-3.0400396e-08
-3.1312369e-08
-3.326681e-08
-3.4670624e-08
-3.6430446e-08
-3.8025146e-08
-3.9587328e-08
-4.1039713e-08
-4.2318921e-08
-4.3446282e-08
-4.4410115e-08
-4.5247114e-08
-4.5989274e-08
-4.6684447e-08
-4.738114e-08
-4.8128915e-08
-4.8962851e-08
-4.99277e-08
-5.1019063e-08
-5.2265915e-08
-5.3638143e-08
-5.5040415e-08
-5.6683853e-08
-5.7957669e-08
-5.9931318e-08
-6.0735412e-08
-6.3273243e-08
-6.3138618e-08
-6.6471543e-08
-6.485227e-08
-6.8876937e-08
-6.5334124e-08
-6.9748817e-08
-6.6092809e-08
-6.9845833e-08
-6.9698031e-08
-7.3290114e-08
-8.0368212e-08
-1.2629277e-08
-1.9822741e-08
-2.3432182e-08
-2.3278614e-08
-2.6558635e-08
-2.3059375e-08
-2.6430868e-08
-2.3523901e-08
-2.7046361e-08
-2.5703572e-08
-2.8712862e-08
-2.8660693e-08
-3.102859e-08
-3.1832351e-08
-3.3751291e-08
-3.5039662e-08
-3.6717217e-08
-3.8182529e-08
-3.9649883e-08
-4.1008601e-08
-4.2228581e-08
-4.3323462e-08
-4.4285844e-08
-4.5143463e-08
-4.5923198e-08
-4.6663586e-08
-4.740416e-08
-4.8185047e-08
-4.9036056e-08
-4.9992092e-08
-5.1052031e-08
-5.2233472e-08
-5.3540972e-08
-5.4833131e-08
-5.6411197e-08
-5.7561474e-08
-5.9496986e-08
-6.0149936e-08
-6.2678569e-08
-6.2333423e-08
-6.5694826e-08
-6.3812193e-08
-6.7908478e-08
-6.4091789e-08
-6.8597598e-08
-6.4733351e-08
-6.8522445e-08
-6.8265284e-08
-7.1831199e-08
-7.8873631e-08
-1.4027381e-08
-2.1184151e-08
-2.4770817e-08
-2.4509324e-08
-2.7841945e-08
-2.4141373e-08
-2.7584894e-08
-2.4434548e-08
-2.8024618e-08
-2.6473217e-08
-2.9510641e-08
-2.9298647e-08
-3.1660389e-08
-3.234379e-08
-3.4221222e-08
-3.5394666e-08
-3.6995493e-08
-3.8345344e-08
-3.9729923e-08
-4.1006031e-08
-4.2172115e-08
-4.3235564e-08
-4.4191314e-08
-4.5060829e-08
-4.5866547e-08
-4.6639425e-08
-4.7411555e-08
-4.8215232e-08
-4.9075571e-08
-5.002009e-08
-5.1050768e-08
-5.2172301e-08
-5.3422364e-08
-5.461421e-08
-5.613162e-08
-5.7159242e-08
-5.905729e-08
-5.9551859e-08
-6.2082927e-08
-6.1517375e-08
-6.493691e-08
-6.276757e-08
-6.6965238e-08
-6.2855536e-08
-6.7473562e-08
-6.3417014e-08
-6.7245486e-08
-6.6887084e-08
-7.0433608e-08
-7.7445447e-08
-1.5374137e-08
-2.2498009e-08
-2.6065218e-08
-2.5697671e-08
-2.9107014e-08
-2.5190352e-08
-2.8738449e-08
-2.5323822e-08
-2.9007206e-08
-2.7233789e-08
-3.0314379e-08
-2.9930708e-08
-3.2288595e-08
-3.284373e-08
-3.4679017e-08
-3.5739466e-08
-3.7269227e-08
-3.8514775e-08
-3.9826009e-08
-4.1028073e-08
-4.2144749e-08
-4.3177313e-08
-4.412212e-08
-4.4996105e-08
-4.5817967e-08
-4.6612439e-08
-4.7405503e-08
-4.8223079e-08
-4.9085895e-08
-5.0015393e-08
-5.1019713e-08
-5.2084863e-08
-5.3282899e-08
-5.4382198e-08
-5.5843943e-08
-5.6750565e-08
-5.8615579e-08
-5.8946146e-08
-6.1490696e-08
-6.0695635e-08
-6.4195339e-08
-6.172319e-08
-6.6058907e-08
-6.1636939e-08
-6.6377788e-08
-6.2149135e-08
-6.6017107e-08
-6.556597e-08
-6.9095867e-08
-7.6081312e-08
-1.6667402e-08
-2.3762344e-08
-2.7312426e-08
-2.6842019e-08
-3.0349545e-08
-2.6195309e-08
-2.9887813e-08
-2.6183711e-08
-2.9987049e-08
-2.7975571e-08
-3.1115829e-08
-3.0548728e-08
-3.2907668e-08
-3.3330205e-08
-3.5126601e-08
-3.6076708e-08
-3.7541185e-08
-3.8691437e-08
-3.9936835e-08
-4.10716e-08
-4.2142362e-08
-4.3144233e-08
-4.4074363e-08
-4.4946587e-08
-4.5776255e-08
-4.6583065e-08
-4.7388013e-08
-4.8211857e-08
-4.9071718e-08
-4.998552e-08
-5.0959118e-08
-5.1973252e-08
-5.3123856e-08
-5.4136905e-08
-5.5548157e-08
-5.6335563e-08
-5.817479e-08
-5.833725e-08
-6.090871e-08
-5.9874608e-08
-6.3479652e-08
-6.0687832e-08
-6.5193165e-08
-6.0447725e-08
-6.534269e-08
-6.0917196e-08
-6.4834843e-08
-6.4298347e-08
-6.7815414e-08
-7.4779143e-08
-1.7904137e-08
-2.497486e-08
-2.851248e-08
-2.7941421e-08
-3.1557721e-08
-2.7111844e-08
-3.1064436e-08
-2.7011976e-08
-3.0957835e-08
-2.8690879e-08
-3.1909536e-08
-3.1148978e-08
-3.3521738e-08
-3.3803872e-08
-3.5565577e-08
-3.6407994e-08
-3.7812988e-08
-3.8875281e-08
-4.0060973e-08
-4.1133764e-08
-4.2161326e-08
-4.3132381e-08
-4.4044782e-08
-4.4909892e-08
-4.5740345e-08
-4.6551722e-08
-4.7360927e-08
-4.8184533e-08
-4.9036405e-08
-4.9931202e-08
-5.0875751e-08
-5.1840708e-08
-5.2947327e-08
-5.3879259e-08
-5.5245242e-08
-5.5914679e-08
-5.7737546e-08
-5.7728737e-08
-6.0342328e-08
-5.9058482e-08
-6.2793771e-08
-5.9658637e-08
-6.4374554e-08
-5.9274643e-08
-6.4368331e-08
-5.9736722e-08
-6.3709855e-08
-6.3085744e-08
-6.6592147e-08
-7.3538441e-08
-1.9082869e-08
-2.6135404e-08
-2.9667854e-08
-2.8996872e-08
-3.2766972e-08
-2.8034849e-08
-3.2141554e-08
-2.7779194e-08
-3.1913832e-08
-2.9374246e-08
-3.269145e-08
-3.1726441e-08
-3.4124646e-08
-3.4262863e-08
-3.5996653e-08
-3.6733953e-08
-3.8085258e-08
-3.9065656e-08
-4.0196799e-08
-4.1211866e-08
-4.2198397e-08
-4.3138429e-08
-4.403047e-08
-4.4884024e-08
-4.570939e-08
-4.6518837e-08
-4.7325934e-08
-4.8143791e-08
-4.8983289e-08
-4.9856915e-08
-5.07725e-08
-5.1690184e-08
-5.2755822e-08
-5.3610934e-08
-5.4937425e-08
-5.5492212e-08
-5.73069e-08
-5.7123403e-08
-5.9795297e-08
-5.8250996e-08
-6.2138031e-08
-5.8610744e-08
-6.3632378e-08
-5.8113656e-08
-6.3458349e-08
-5.861523e-08
-6.2641566e-08
-6.1931704e-08
-6.5428487e-08
-7.2360173e-08
-2.0203077e-08
-2.7242269e-08
-3.0773868e-08
-2.9999818e-08
-3.3899611e-08
-2.872139e-08
-3.3373621e-08
-2.8545063e-08
-3.2860337e-08
-3.0021734e-08
-3.3458763e-08
-3.2277709e-08
-3.471433e-08
-3.4705733e-08
-3.6419569e-08
-3.7054395e-08
-3.8357896e-08
-3.9261486e-08
-4.0342545e-08
-4.1303356e-08
-4.2250648e-08
-4.3159423e-08
-4.4028866e-08
-4.4867319e-08
-4.568275e-08
-4.6484822e-08
-4.7284544e-08
-4.8091887e-08
-4.8915679e-08
-4.9766139e-08
-5.0652678e-08
-5.1524741e-08
-5.2552062e-08
-5.3333842e-08
-5.4626667e-08
-5.5068711e-08
-5.6884856e-08
-5.6523094e-08
-5.9269824e-08
-5.7454738e-08
-6.1540477e-08
-5.7678974e-08
-6.2843899e-08
-5.6986073e-08
-6.25744e-08
-5.7547122e-08
-6.1626513e-08
-6.0836383e-08
-6.4325175e-08
-7.1244718e-08
-2.1265441e-08
-2.8294867e-08
-3.1829337e-08
-3.0957736e-08
-3.4980623e-08
-2.9378663e-08
-3.4555317e-08
-2.9271537e-08
-3.3792566e-08
-3.0628756e-08
-3.4209424e-08
-3.2800541e-08
-3.5289948e-08
-3.5131597e-08
-3.6834297e-08
-3.7368836e-08
-3.8630389e-08
-3.9461457e-08
-4.0496382e-08
-4.1405841e-08
-4.2315447e-08
-4.3192755e-08
-4.4037873e-08
-4.4858168e-08
-4.5659749e-08
-4.6450161e-08
-4.7237999e-08
-4.8031287e-08
-4.8836396e-08
-4.9662091e-08
-5.0519544e-08
-5.1347414e-08
-5.2338864e-08
-5.3050294e-08
-5.4315066e-08
-5.4645926e-08
-5.6473267e-08
-5.5929753e-08
-5.8767236e-08
-5.665955e-08
-6.0923876e-08
-5.6554574e-08
-6.2314336e-08
-5.595682e-08
-6.1732081e-08
-5.652805e-08
-6.0667868e-08
-5.9800895e-08
-6.3282177e-08
-7.0191626e-08
-2.2271578e-08
-2.9292898e-08
-3.2831824e-08
-3.1868532e-08
-3.6030472e-08
-3.0114842e-08
-3.5621654e-08
-2.9931134e-08
-3.4702116e-08
-3.119082e-08
-3.4942192e-08
-3.3293628e-08
-3.5851181e-08
-3.553986e-08
-3.7240589e-08
-3.767661e-08
-3.890201e-08
-3.9664173e-08
-4.0656505e-08
-4.1517099e-08
-4.2390424e-08
-4.3236139e-08
-4.4055588e-08
-4.4855357e-08
-4.563994e-08
-4.6415123e-08
-4.7187654e-08
-4.7963779e-08
-4.874799e-08
-4.9547668e-08
-5.0376114e-08
-5.1161071e-08
-5.2118865e-08
-5.2762544e-08
-5.4004699e-08
-5.4225725e-08
-5.6073847e-08
-5.5345244e-08
-5.829272e-08
-5.5881613e-08
-6.0327035e-08
-5.547551e-08
-6.1814935e-08
-5.4974039e-08
-6.0924764e-08
-5.552285e-08
-5.975518e-08
-5.8823069e-08
-6.229843e-08
-6.9199869e-08
-2.322266e-08
-3.0235864e-08
-3.3780468e-08
-3.273131e-08
-3.7042414e-08
-3.0858172e-08
-3.664692e-08
-3.0529527e-08
-3.5588068e-08
-3.1707577e-08
-3.5657516e-08
-3.3756516e-08
-3.6398077e-08
-3.5930137e-08
-3.7638131e-08
-3.7976996e-08
-3.9172124e-08
-3.9868239e-08
-4.082118e-08
-4.1635094e-08
-4.2473455e-08
-4.3287569e-08
-4.4080368e-08
-4.4857777e-08
-4.5622894e-08
-4.6380052e-08
-4.7134555e-08
-4.7891137e-08
-4.8652734e-08
-4.9425412e-08
-5.0224851e-08
-5.0967984e-08
-5.1894656e-08
-5.2473001e-08
-5.3697474e-08
-5.3809865e-08
-5.5688007e-08
-5.4771244e-08
-5.7838461e-08
-5.5076893e-08
-5.9837416e-08
-5.4548926e-08
-6.1241886e-08
-5.4008298e-08
-6.0180772e-08
-5.4570391e-08
-5.8891103e-08
-5.7901719e-08
-6.1372494e-08
-6.8268011e-08
-2.4121373e-08
-3.1126219e-08
-3.4671523e-08
-3.3541328e-08
-3.7991517e-08
-3.1508406e-08
-3.7622169e-08
-3.1019281e-08
-3.6501172e-08
-3.2188039e-08
-3.6356149e-08
-3.4189225e-08
-3.6930944e-08
-3.6302229e-08
-3.8026468e-08
-3.8269085e-08
-3.94391e-08
-4.0072157e-08
-4.0988774e-08
-4.1757985e-08
-4.2562661e-08
-4.3345298e-08
-4.4110801e-08
-4.4864493e-08
-4.5608269e-08
-4.634532e-08
-4.7079649e-08
-4.7814886e-08
-4.855261e-08
-4.9297708e-08
-5.0068631e-08
-5.0771119e-08
-5.166854e-08
-5.2183674e-08
-5.3395064e-08
-5.3399657e-08
-5.5316296e-08
-5.4210088e-08
-5.7435942e-08
-5.4393639e-08
-5.9302672e-08
-5.3653514e-08
-6.0694522e-08
-5.3108494e-08
-5.9525356e-08
-5.367901e-08
-5.8072521e-08
-5.703466e-08
-6.050266e-08
-6.7394449e-08
-2.4970035e-08
-3.196631e-08
-3.5506585e-08
-3.4300984e-08
-3.885571e-08
-3.2076002e-08
-3.8583303e-08
-3.1566156e-08
-3.7276742e-08
-3.2597867e-08
-3.703872e-08
-3.4593019e-08
-3.745051e-08
-3.6656005e-08
-3.8404984e-08
-3.8552034e-08
-3.9702274e-08
-4.0274667e-08
-4.1157832e-08
-4.1884147e-08
-4.2656396e-08
-4.3407815e-08
-4.414567e-08
-4.4874705e-08
-4.5595764e-08
-4.6311101e-08
-4.7023733e-08
-4.7736327e-08
-4.8449334e-08
-4.9166512e-08
-4.9909355e-08
-5.0572325e-08
-5.1442561e-08
-5.1896519e-08
-5.3099004e-08
-5.2996764e-08
-5.4959543e-08
-5.3654388e-08
-5.7007841e-08
-5.3537261e-08
-5.9011203e-08
-5.2853768e-08
-6.0201004e-08
-5.2265612e-08
-5.8928459e-08
-5.2850662e-08
-5.7299482e-08
-5.6221139e-08
-5.9687857e-08
-6.6577622e-08
-2.5770012e-08
-3.275775e-08
-3.6290652e-08
-3.5025276e-08
-3.9671417e-08
-3.257998e-08
-3.9420797e-08
-3.1842823e-08
-3.82474e-08
-3.3035124e-08
-3.7708506e-08
-3.4967523e-08
-3.7957341e-08
-3.699126e-08
-3.8772263e-08
-3.8825025e-08
-3.9960814e-08
-4.0474663e-08
-4.1327096e-08
-4.2012165e-08
-4.2753226e-08
-4.3473813e-08
-4.4183933e-08
-4.4887729e-08
-4.5585134e-08
-4.627765e-08
-4.6967498e-08
-4.7656574e-08
-4.8344373e-08
-4.9033544e-08
-4.9748904e-08
-5.0373526e-08
-5.1218526e-08
-5.1613275e-08
-5.2810697e-08
-5.2602789e-08
-5.4620132e-08
-5.3113465e-08
-5.6599331e-08
-5.2759587e-08
-5.8705008e-08
-5.2093284e-08
-5.9757666e-08
-5.1472294e-08
-5.8407765e-08
-5.2087488e-08
-5.6573646e-08
-5.5460171e-08
-5.8926955e-08
-6.5815558e-08
-2.6521224e-08
-3.3499893e-08
-3.7022773e-08
-3.5706614e-08
-4.0406638e-08
-3.2982519e-08
-4.0221192e-08
-3.2103664e-08
-3.918326e-08
-3.340822e-08
-3.841243e-08
-3.5322319e-08
-3.845156e-08
-3.7308994e-08
-3.9131449e-08
-3.9088626e-08
-4.0214241e-08
-4.0671254e-08
-4.1495536e-08
-4.2140831e-08
-4.2851918e-08
-4.3542174e-08
-4.4224697e-08
-4.490298e-08
-4.5576162e-08
-4.6245154e-08
-4.6911527e-08
-4.7576568e-08
-4.8238971e-08
-4.8900266e-08
-4.9588865e-08
-5.0176344e-08
-5.0997965e-08
-5.1335449e-08
-5.2531346e-08
-5.2219277e-08
-5.4293376e-08
-5.2560361e-08
-5.6262795e-08
-5.209644e-08
-5.8354742e-08
-5.135149e-08
-5.9354718e-08
-5.0712846e-08
-5.7912116e-08
-5.1378394e-08
-5.5893357e-08
-5.4749655e-08
-5.8218019e-08
-6.510544e-08
-2.7221629e-08
-3.4190459e-08
-3.7699772e-08
-3.633751e-08
-4.1071626e-08
-3.3398083e-08
-4.0982948e-08
-3.2454778e-08
-3.999101e-08
-3.382449e-08
-3.8994763e-08
-3.5624759e-08
-3.8934197e-08
-3.7610425e-08
-3.9481915e-08
-3.9342524e-08
-4.0461931e-08
-4.0863643e-08
-4.1662391e-08
-4.2269108e-08
-4.2951406e-08
-4.3611941e-08
-4.4267204e-08
-4.4919961e-08
-4.5568654e-08
-4.6213763e-08
-4.6856302e-08
-4.7497095e-08
-4.8134165e-08
-4.8767904e-08
-4.943056e-08
-4.9982125e-08
-5.0782125e-08
-5.1064186e-08
-5.2261743e-08
-5.184874e-08
-5.3999461e-08
-5.2093871e-08
-5.5892582e-08
-5.1461412e-08
-5.8015915e-08
-5.0635468e-08
-5.8993852e-08
-4.9988441e-08
-5.7444535e-08
-5.0716941e-08
-5.5256227e-08
-5.4087932e-08
-5.7557588e-08
-6.4443728e-08
-2.7869759e-08
-3.4828279e-08
-3.8321131e-08
-3.6919389e-08
-4.1685503e-08
-3.3807867e-08
-4.1717397e-08
-3.2789459e-08
-4.0682347e-08
-3.3974631e-08
-3.9775287e-08
-3.5964247e-08
-3.9405378e-08
-3.7893441e-08
-3.9822285e-08
-3.9586188e-08
-4.0703244e-08
-4.1050999e-08
-4.1826177e-08
-4.2395988e-08
-4.3050773e-08
-4.3682305e-08
-4.431081e-08
-4.493825e-08
-4.5562492e-08
-4.6183597e-08
-4.6802218e-08
-4.7418801e-08
-4.8030813e-08
-4.8637468e-08
-4.9275075e-08
-4.9791985e-08
-5.0572046e-08
-5.0800582e-08
-5.2002615e-08
-5.1487594e-08
-5.3692191e-08
-5.1533315e-08
-5.5667513e-08
-5.0894131e-08
-5.7700533e-08
-4.9941182e-08
-5.8685332e-08
-4.9301883e-08
-5.6999649e-08
-5.0106723e-08
-5.4661545e-08
-5.3472968e-08
-5.6942988e-08
-6.3827874e-08
-2.8466793e-08
-3.5415937e-08
-3.8893108e-08
-3.7462444e-08
-4.2257576e-08
-3.4199995e-08
-4.2415638e-08
-3.30917e-08
-4.1335158e-08
-3.417519e-08
-4.0438655e-08
-3.6264352e-08
-3.9875216e-08
-3.8161223e-08
-4.0152147e-08
-3.9819281e-08
-4.0937647e-08
-4.1232749e-08
-4.1986477e-08
-4.252073e-08
-4.3149255e-08
-4.3752586e-08
-4.4354973e-08
-4.4957479e-08
-4.5557468e-08
-4.6154735e-08
-4.6749589e-08
-4.7342208e-08
-4.7929611e-08
-4.8509781e-08
-4.9123286e-08
-4.9606831e-08
-5.0368567e-08
-5.0545817e-08
-5.1755272e-08
-5.1138473e-08
-5.3396693e-08
-5.1006797e-08
-5.5453771e-08
-5.0370177e-08
-5.7425067e-08
-4.9309263e-08
-5.8403379e-08
-4.8639957e-08
-5.6568608e-08
-4.9539864e-08
-5.410597e-08
-5.2902291e-08
-5.6372285e-08
-6.3256211e-08
-2.9015288e-08
-3.5957057e-08
-3.9421569e-08
-3.7971963e-08
-4.2785781e-08
-3.4577119e-08
-4.3070213e-08
-3.336565e-08
-4.1959842e-08
-3.4413548e-08
-4.1003493e-08
-3.6516451e-08
-4.0334606e-08
-3.8410656e-08
-4.0470259e-08
-4.0041663e-08
-4.116476e-08
-4.1408453e-08
-4.214269e-08
-4.2642706e-08
-4.324622e-08
-4.3822217e-08
-4.4399235e-08
-4.497734e-08
-4.5553471e-08
-4.6127236e-08
-4.6698665e-08
-4.7267735e-08
-4.7831116e-08
-4.8385504e-08
-4.8975885e-08
-4.9427367e-08
-5.0172234e-08
-5.0300606e-08
-5.1521743e-08
-5.0812179e-08
-5.3116908e-08
-5.055903e-08
-5.5198009e-08
-4.9861517e-08
-5.7159106e-08
-4.8709663e-08
-5.8174251e-08
-4.8032441e-08
-5.6151345e-08
-4.9018352e-08
-5.3589016e-08
-5.2374304e-08
-5.584431e-08
-6.2727802e-08
-2.9517496e-08
-3.6454365e-08
-3.9910175e-08
-3.8451075e-08
-4.3271924e-08
-3.494264e-08
-4.3664299e-08
-3.3592404e-08
-4.2561683e-08
-3.4647662e-08
-4.1533111e-08
-3.6773243e-08
-4.0738549e-08
-3.8636829e-08
-4.0776274e-08
-4.0253629e-08
-4.1384339e-08
-4.1577807e-08
-4.2294358e-08
-4.2761413e-08
-4.3341146e-08
-4.3890727e-08
-4.4443215e-08
-4.499757e-08
-4.5550385e-08
-4.610114e-08
-4.6649636e-08
-4.719571e-08
-4.7735765e-08
-4.826516e-08
-4.883341e-08
-4.9254156e-08
-4.998338e-08
-5.0064307e-08
-5.1293721e-08
-5.0479178e-08
-5.2879471e-08
-5.0152004e-08
-5.4947662e-08
-4.9366703e-08
-5.6893612e-08
-4.8126071e-08
-5.797281e-08
-4.7519431e-08
-5.5747509e-08
-4.8545773e-08
-5.3110214e-08
-5.1888176e-08
-5.5358758e-08
-6.224255e-08
-2.9974391e-08
-3.6908507e-08
-4.0358601e-08
-3.8897216e-08
-4.3717249e-08
-3.5301924e-08
-4.4216633e-08
-3.3806906e-08
-4.3109733e-08
-3.4848456e-08
-4.1990599e-08
-3.6884047e-08
-4.124346e-08
-3.8880346e-08
-4.1075306e-08
-4.0455703e-08
-4.1596026e-08
-4.1740547e-08
-4.2441e-08
-4.2876428e-08
-4.3433602e-08
-4.3957727e-08
-4.4486592e-08
-4.5017943e-08
-4.55481e-08
-4.6076465e-08
-4.6602645e-08
-4.7126386e-08
-4.7643895e-08
-4.8149153e-08
-4.8696252e-08
-4.908765e-08
-4.9802474e-08
-4.9838951e-08
-5.1078333e-08
-5.0162101e-08
-5.2656319e-08
-4.9767644e-08
-5.471244e-08
-4.8898508e-08
-5.6647859e-08
-4.7604712e-08
-5.7744943e-08
-4.7063713e-08
-5.5355524e-08
-4.8121982e-08
-5.2671566e-08
-5.144559e-08
-5.4916804e-08
-6.1801411e-08
-3.0385785e-08
-3.7318776e-08
-4.076441e-08
-3.9304232e-08
-4.4117647e-08
-3.5651775e-08
-4.4719789e-08
-3.4005946e-08
-4.3619596e-08
-3.5035042e-08
-4.2423311e-08
-3.7049685e-08
-4.1657196e-08
-3.9102592e-08
-4.1364595e-08
-4.0647266e-08
-4.1799107e-08
-4.1896438e-08
-4.2582285e-08
-4.2987423e-08
-4.3523222e-08
-4.402289e-08
-4.4529092e-08
-4.5038264e-08
-4.5546517e-08
-4.6053214e-08
-4.6557797e-08
-4.7059953e-08
-4.755576e-08
-4.8037783e-08
-4.8564673e-08
-4.8928126e-08
-4.9629649e-08
-4.9625795e-08
-5.0881543e-08
-4.9885702e-08
-5.2418299e-08
-4.9394626e-08
-5.4486325e-08
-4.8454526e-08
-5.6423882e-08
-4.7131584e-08
-5.750281e-08
-4.6645596e-08
-5.4985539e-08
-4.7748496e-08
-5.227648e-08
-5.1049605e-08
-5.4520477e-08
-6.1406052e-08
-3.0750858e-08
-3.768461e-08
-4.1127372e-08
-3.9673574e-08
-4.447776e-08
-3.5982856e-08
-4.514805e-08
-3.4158415e-08
-4.4124376e-08
-3.5236873e-08
-4.2845944e-08
-3.7238595e-08
-4.2020536e-08
-3.9314272e-08
-4.1629249e-08
-4.0825473e-08
-4.1992915e-08
-4.2045401e-08
-4.2717908e-08
-4.3094134e-08
-4.36097e-08
-4.4085945e-08
-4.4570485e-08
-4.5058361e-08
-4.5545544e-08
-4.6031379e-08
-4.6515168e-08
-4.6996557e-08
-4.7471552e-08
-4.7931278e-08
-4.8438826e-08
-4.8775692e-08
-4.9464368e-08
-4.9422183e-08
-5.0688609e-08
-4.9611137e-08
-5.2207017e-08
-4.904911e-08
-5.4268728e-08
-4.8029505e-08
-5.6217543e-08
-4.6694393e-08
-5.7262254e-08
-4.6264221e-08
-5.4637811e-08
-4.7420625e-08
-5.1925041e-08
-5.070202e-08
-5.4171435e-08
-6.1058199e-08
-3.1068102e-08
-3.8005177e-08
-4.144766e-08
-4.0007145e-08
-4.4802337e-08
-3.6306511e-08
-4.5532273e-08
-3.4308834e-08
-4.4574868e-08
-3.5437831e-08
-4.3245039e-08
-3.7420506e-08
-4.2349733e-08
-3.9492451e-08
-4.1898561e-08
-4.0998849e-08
-4.2178091e-08
-4.2187511e-08
-4.2847613e-08
-4.3196366e-08
-4.3692781e-08
-4.4146665e-08
-4.4610571e-08
-4.5078086e-08
-4.5545095e-08
-4.6010947e-08
-4.6474812e-08
-4.6936314e-08
-4.7391425e-08
-4.7829832e-08
-4.8318834e-08
-4.8630471e-08
-4.930614e-08
-4.9226305e-08
-5.049156e-08
-4.9317822e-08
-5.2044475e-08
-4.8744167e-08
-5.4068393e-08
-4.7637595e-08
-5.6017385e-08
-4.6285925e-08
-5.7021057e-08
-4.5916638e-08
-5.4306884e-08
-4.7134023e-08
-5.1613919e-08
-5.0402162e-08
-5.3870363e-08
-6.0759413e-08
-3.1334753e-08
-3.8278763e-08
-4.1724792e-08
-4.0306413e-08
-4.5093711e-08
-3.6620141e-08
-4.5879012e-08
-3.4487422e-08
-4.4957815e-08
-3.5621908e-08
-4.3618135e-08
-3.7599553e-08
-4.2659555e-08
-3.9656435e-08
-4.2157301e-08
-4.1162884e-08
-4.2353088e-08
-4.2322669e-08
-4.2971158e-08
-4.3293975e-08
-4.3772265e-08
-4.4204861e-08
-4.4649176e-08
-4.5097305e-08
-4.5545091e-08
-4.5991899e-08
-4.6436772e-08
-4.6879319e-08
-4.7315513e-08
-4.7733633e-08
-4.8204852e-08
-4.8492772e-08
-4.9155096e-08
-4.9039892e-08
-5.0299996e-08
-4.904238e-08
-5.189023e-08
-4.8471316e-08
-5.3885141e-08
-4.7289225e-08
-5.5817634e-08
-4.5906008e-08
-5.6775283e-08
-4.5601354e-08
-5.3990724e-08
-4.6882259e-08
-5.1336909e-08
-5.0147696e-08
-5.3617457e-08
-6.0511626e-08
-3.1546622e-08
-3.8502468e-08
-4.195741e-08
-4.0571415e-08
-4.5351373e-08
-3.6914876e-08
-4.6173128e-08
-3.4690749e-08
-4.5297961e-08
-3.579519e-08
-4.3975157e-08
-3.7785838e-08
-4.2964394e-08
-3.9843655e-08
-4.2370999e-08
-4.1309111e-08
-4.2516276e-08
-4.2450966e-08
-4.3088356e-08
-4.338687e-08
-4.3848047e-08
-4.4260366e-08
-4.4686134e-08
-4.5115889e-08
-4.5545455e-08
-4.5974212e-08
-4.6401084e-08
-4.6825661e-08
-4.7243945e-08
-4.764288e-08
-4.8097072e-08
-4.8363016e-08
-4.9011592e-08
-4.8864974e-08
-5.0120017e-08
-4.8804165e-08
-5.1721379e-08
-4.8218388e-08
-5.3700783e-08
-4.6971456e-08
-5.5621627e-08
-4.5568385e-08
-5.6532496e-08
-4.5322496e-08
-5.3687848e-08
-4.6658557e-08
-5.1089518e-08
-4.9938153e-08
-5.3415191e-08
-6.0318794e-08
-3.1698016e-08
-3.8672589e-08
-4.2144685e-08
-4.080409e-08
-4.5578088e-08
-3.7193301e-08
-4.6424517e-08
-3.4911158e-08
-4.5615837e-08
-3.5974455e-08
-4.4310115e-08
-3.7969697e-08
-4.3245138e-08
-4.0019851e-08
-4.2574139e-08
-4.1451428e-08
-4.2670335e-08
-4.2573075e-08
-4.3199084e-08
-4.347492e-08
-4.3919652e-08
-4.4312966e-08
-4.4721277e-08
-4.5133711e-08
-4.5546111e-08
-4.5957865e-08
-4.6367779e-08
-4.6775424e-08
-4.7176845e-08
-4.7557775e-08
-4.7995688e-08
-4.8241607e-08
-4.8875654e-08
-4.8701544e-08
-4.9951e-08
-4.8598963e-08
-5.1538193e-08
-4.7979257e-08
-5.3499558e-08
-4.667401e-08
-5.5427909e-08
-4.5287642e-08
-5.6305881e-08
-4.5065922e-08
-5.3391318e-08
-4.6458371e-08
-5.0872018e-08
-4.9776254e-08
-5.3267893e-08
-6.0186728e-08
-3.1782951e-08
-3.8785192e-08
-4.2287544e-08
-4.1009146e-08
-4.5780919e-08
-3.7465466e-08
-4.6648481e-08
-3.5156641e-08
-4.5924011e-08
-3.6172476e-08
-4.4606512e-08
-3.813743e-08
-4.3483676e-08
-4.0149908e-08
-4.2801055e-08
-4.1601766e-08
-4.2816653e-08
-4.2689398e-08
-4.3303114e-08