/*--------------------------------*- C++ -*----------------------------------*\
  =========                 |
  \\      /  F ield         | OpenFOAM: The Open Source CFD Toolbox
   \\    /   O peration     | Website:  https://openfoam.org
    \\  /    A nd           | Version:  11
     \\/     M anipulation  |
\*---------------------------------------------------------------------------*/
FoamFile
{
    format      ascii;
    class       volScalarField;
    location    "40/Air";
    object      p_rgh;
}
// * * * * * * * * * * * * * * * * * * * * * * * * * * * * * * * * * * * * * //

dimensions      [1 -1 -2 0 0 0 0];

internalField   nonuniform List<scalar> 
124340
(
3.3481465e-11
-1.5272843e-07
-2.7658887e-07
-1.4077081e-07
-3.8186755e-07
-7.6891109e-08
-4.0220933e-07
-8.9303358e-08
-3.6802197e-07
-1.5758271e-07
-3.2001237e-07
-2.3595413e-07
-3.0289347e-07
-2.9032147e-07
-3.1035862e-07
-3.2583557e-07
-3.3188967e-07
-3.4480741e-07
-3.480221e-07
-3.5399065e-07
-3.5463748e-07
-3.5571833e-07
-3.5371794e-07
-3.5173028e-07
-3.4878754e-07
-3.4560076e-07
-3.4252855e-07
-3.4027077e-07
-3.3785269e-07
-3.3843766e-07
-3.3820073e-07
-3.4367215e-07
-3.4649607e-07
-3.5880435e-07
-3.6441808e-07
-3.7856322e-07
-4.0308065e-07
-3.8612983e-07
-4.6146891e-07
-3.6765813e-07
-5.3756624e-07
-3.2061257e-07
-6.0117413e-07
-2.895924e-07
-6.1206913e-07
-3.1391648e-07
-5.5227676e-07
-4.2244178e-07
-5.4501613e-07
-6.9692049e-07
-1.0890861e-08
-1.7010982e-07
-2.9640249e-07
-1.320712e-07
-4.0402086e-07
-5.8737362e-08
-4.2509735e-07
-7.5329765e-08
-3.839309e-07
-1.5306953e-07
-3.2577921e-07
-2.407937e-07
-3.0175197e-07
-2.9299811e-07
-3.0684476e-07
-3.2288434e-07
-3.2776908e-07
-3.4249302e-07
-3.4448929e-07
-3.5169098e-07
-3.5268583e-07
-3.5440698e-07
-3.5276167e-07
-3.5115525e-07
-3.4854373e-07
-3.4565962e-07
-3.429143e-07
-3.4101047e-07
-3.3892916e-07
-3.4012131e-07
-3.4014771e-07
-3.4681263e-07
-3.4845804e-07
-3.6304694e-07
-3.6666777e-07
-3.8240586e-07
-4.0011856e-07
-3.8660304e-07
-4.5958046e-07
-3.6125477e-07
-5.4411513e-07
-3.0455625e-07
-6.1587004e-07
-2.6590776e-07
-6.3169692e-07
-2.9172388e-07
-5.6117923e-07
-4.0341327e-07
-5.278909e-07
-6.8788246e-07
1.9211684e-08
-1.6153308e-07
-3.0187239e-07
-1.2014528e-07
-4.1793035e-07
-4.4603778e-08
-4.4238297e-07
-6.4295607e-08
-3.9715601e-07
-1.5053072e-07
-3.3299481e-07
-2.4384711e-07
-3.0415634e-07
-2.9324388e-07
-3.0566344e-07
-3.2057459e-07
-3.2437743e-07
-3.3903443e-07
-3.4123977e-07
-3.4887105e-07
-3.5012166e-07
-3.5260969e-07
-3.5141624e-07
-3.503235e-07
-3.4820378e-07
-3.4578833e-07
-3.4351299e-07
-3.4213385e-07
-3.4048013e-07
-3.4236625e-07
-3.4275148e-07
-3.5049408e-07
-3.5097819e-07
-3.6615975e-07
-3.6890771e-07
-3.8371296e-07
-3.9992521e-07
-3.8524313e-07
-4.567728e-07
-3.5599003e-07
-5.4876697e-07
-2.9033559e-07
-6.2706987e-07
-2.4850795e-07
-6.4629801e-07
-2.7772264e-07
-5.7336743e-07
-3.9835341e-07
-5.3708134e-07
-7.1836351e-07
3.4321693e-08
-1.6641559e-07
-3.0708795e-07
-1.1622724e-07
-4.2958214e-07
-3.6134007e-08
-4.5566834e-07
-5.6801549e-08
-4.074288e-07
-1.4879169e-07
-3.4017897e-07
-2.4491975e-07
-3.0735294e-07
-2.9301273e-07
-3.0613434e-07
-3.190246e-07
-3.2239708e-07
-3.3637431e-07
-3.3861283e-07
-3.4643484e-07
-3.4796679e-07
-3.5084502e-07
-3.5009809e-07
-3.4949455e-07
-3.4786157e-07
-3.4594946e-07
-3.4417259e-07
-3.4328726e-07
-3.4211164e-07
-3.444556e-07
-3.4523377e-07
-3.5294574e-07
-3.5366189e-07
-3.680147e-07
-3.7068416e-07
-3.8345378e-07
-4.0049398e-07
-3.8253657e-07
-4.5617673e-07
-3.5001928e-07
-5.5214269e-07
-2.7866957e-07
-6.3431967e-07
-2.3510173e-07
-6.5489966e-07
-2.6650552e-07
-5.7811004e-07
-3.9199939e-07
-5.3179601e-07
-7.3327364e-07
3.9674652e-08
-1.6998421e-07
-3.1157793e-07
-1.1345967e-07
-4.3895867e-07
-3.0497568e-08
-4.666703e-07
-5.1359758e-08
-4.1678943e-07
-1.4659478e-07
-3.4713175e-07
-2.4443403e-07
-3.1057203e-07
-2.9235212e-07
-3.0761058e-07
-3.1801497e-07
-3.2147945e-07
-3.3430772e-07
-3.3663548e-07
-3.442983e-07
-3.4607815e-07
-3.4916178e-07
-3.4885663e-07
-3.4867407e-07
-3.4752835e-07
-3.4611749e-07
-3.4483997e-07
-3.4439817e-07
-3.4370111e-07
-3.4631208e-07
-3.4744186e-07
-3.5476875e-07
-3.5595706e-07
-3.6901474e-07
-3.7207867e-07
-3.8226854e-07
-4.0165549e-07
-3.7893563e-07
-4.5744509e-07
-3.4324013e-07
-5.5518234e-07
-2.6822362e-07
-6.3946136e-07
-2.2393463e-07
-6.6040224e-07
-2.5719467e-07
-5.8036892e-07
-3.8734093e-07
-5.2779712e-07
-7.3818423e-07
3.8436882e-08
-1.7502368e-07
-3.1616415e-07
-1.1250808e-07
-4.4725001e-07
-2.6954503e-08
-4.7623678e-07
-4.7511045e-08
-4.2603763e-07
-1.4397251e-07
-3.5394733e-07
-2.4297643e-07
-3.1437328e-07
-2.9142221e-07
-3.0962272e-07
-3.1720799e-07
-3.2119178e-07
-3.3262269e-07
-3.3497945e-07
-3.4259009e-07
-3.4443401e-07
-3.47578e-07
-3.4769407e-07
-3.4788293e-07
-3.4720964e-07
-3.4628854e-07
-3.4549875e-07
-3.4545662e-07
-3.4522158e-07
-3.4796333e-07
-3.4938048e-07
-3.5629455e-07
-3.5789529e-07
-3.6947875e-07
-3.7350083e-07
-3.8041854e-07
-4.0327649e-07
-3.7453267e-07
-4.6003542e-07
-3.3567386e-07
-5.5810766e-07
-2.5854592e-07
-6.4302231e-07
-2.1410875e-07
-6.6362361e-07
-2.4880263e-07
-5.8072222e-07
-3.8225979e-07
-5.2210929e-07
-7.3627858e-07
3.3397169e-08
-1.79763e-07
-3.2126998e-07
-1.1289635e-07
-4.5473556e-07
-2.5207001e-08
-4.8476497e-07
-4.5177403e-08
-4.3538762e-07
-1.4117477e-07
-3.6068927e-07
-2.4077002e-07
-3.1857902e-07
-2.9018138e-07
-3.119323e-07
-3.1632222e-07
-3.2126762e-07
-3.312214e-07
-3.3383493e-07
-3.4095905e-07
-3.4296096e-07
-3.4608568e-07
-3.4660873e-07
-3.4713395e-07
-3.4691081e-07
-3.4646235e-07
-3.4613621e-07
-3.4645694e-07
-3.466654e-07
-3.4945995e-07
-3.5116614e-07
-3.5752327e-07
-3.5956572e-07
-3.696165e-07
-3.7500534e-07
-3.7825302e-07
-4.0533307e-07
-3.6991499e-07
-4.6406865e-07
-3.2763397e-07
-5.6073698e-07
-2.4938773e-07
-6.4514159e-07
-2.0529405e-07
-6.6499569e-07
-2.4106392e-07
-5.7961947e-07
-3.7678613e-07
-5.1669854e-07
-7.3058013e-07
2.7412295e-08
-1.8466499e-07
-3.2684213e-07
-1.1460139e-07
-4.6177537e-07
-2.502103e-08
-4.9265454e-07
-4.4249461e-08
-4.4474877e-07
-1.3805568e-07
-3.6740613e-07
-2.3797458e-07
-3.2308094e-07
-2.8861728e-07
-3.1429423e-07
-3.154354e-07
-3.2153682e-07
-3.3005878e-07
-3.3306158e-07
-3.3946875e-07
-3.4159485e-07
-3.4467864e-07
-3.4560463e-07
-3.4644027e-07
-3.4663708e-07
-3.4663286e-07
-3.4673852e-07
-3.4738929e-07
-3.4801778e-07
-3.5081644e-07
-3.5272679e-07
-3.5858127e-07
-3.6104124e-07
-3.6953923e-07
-3.7650009e-07
-3.7596505e-07
-4.0775261e-07
-3.6511122e-07
-4.6794122e-07
-3.1813168e-07
-5.63012e-07
-2.4093251e-07
-6.460885e-07
-1.9734865e-07
-6.648739e-07
-2.3382421e-07
-5.7739284e-07
-3.7088534e-07
-5.112164e-07
-7.2393059e-07
2.1229525e-08
-1.8966775e-07
-3.3268421e-07
-1.1719709e-07
-4.6843269e-07
-2.6117957e-08
-5.000187e-07
-4.4591859e-08
-4.5392486e-07
-1.3501839e-07
-3.7411762e-07
-2.3475284e-07
-3.2783111e-07
-2.8686865e-07
-3.1665672e-07
-3.1444084e-07
-3.2203635e-07
-3.2907095e-07
-3.3243634e-07
-3.382639e-07
-3.4028499e-07
-3.4339477e-07
-3.4469794e-07
-3.4581452e-07
-3.463928e-07
-3.4679522e-07
-3.4729373e-07
-3.4824453e-07
-3.492632e-07
-3.5203259e-07
-3.5395824e-07
-3.5959877e-07
-3.6240119e-07
-3.691585e-07
-3.7810607e-07
-3.7348343e-07
-4.1021173e-07
-3.5962625e-07
-4.7162596e-07
-3.0977189e-07
-5.6479289e-07
-2.3285044e-07
-6.460102e-07
-1.9012453e-07
-6.6361561e-07
-2.270262e-07
-5.7444024e-07
-3.6480239e-07
-5.0573094e-07
-7.1709891e-07
1.5122704e-08
-1.9469882e-07
-3.3853627e-07
-1.2039923e-07
-4.7473706e-07
-2.8200283e-08
-5.0690878e-07
-4.57395e-08
-4.6211935e-07
-1.3222346e-07
-3.814455e-07
-2.3122919e-07
-3.32973e-07
-2.849251e-07
-3.1906672e-07
-3.1342622e-07
-3.2261706e-07
-3.2822936e-07
-3.3186188e-07
-3.3695841e-07
-3.3936876e-07
-3.4231468e-07
-3.4390647e-07
-3.4526481e-07
-3.4617983e-07
-3.4694489e-07
-3.4779225e-07
-3.4901024e-07
-3.5036468e-07
-3.5306446e-07
-3.5526551e-07
-3.6032432e-07
-3.6362365e-07
-3.6865461e-07
-3.7967762e-07
-3.7075164e-07
-4.1213124e-07
-3.5205785e-07
-4.7653754e-07
-3.0191439e-07
-5.6686902e-07
-2.2562298e-07
-6.4518064e-07
-1.8355006e-07
-6.6150782e-07
-2.2064009e-07
-5.7097898e-07
-3.5880284e-07
-5.0039732e-07
-7.1028394e-07
9.1470541e-09
-1.9967027e-07
-3.4422763e-07
-1.240277e-07
-4.8069536e-07
-3.0971551e-08
-5.1329202e-07
-4.7480421e-08
-4.6971951e-07
-1.3020552e-07
-3.8888408e-07
-2.2666323e-07
-3.3874909e-07
-2.8299882e-07
-3.2158792e-07
-3.1245631e-07
-3.233058e-07
-3.2743181e-07
-3.3133448e-07
-3.3587777e-07
-3.3856107e-07
-3.4139459e-07
-3.4322131e-07
-3.4478829e-07
-3.4599629e-07
-3.4707862e-07
-3.4823018e-07
-3.4968405e-07
-3.5132468e-07
-3.5398671e-07
-3.5640141e-07
-3.6093483e-07
-3.647997e-07
-3.6797697e-07
-3.8119877e-07
-3.6789782e-07
-4.1416055e-07
-3.4609009e-07
-4.7966446e-07
-2.9391381e-07
-5.6854356e-07
-2.1903081e-07
-6.4368621e-07
-1.7753802e-07
-6.5879616e-07
-2.1464264e-07
-5.6717717e-07
-3.5294941e-07
-4.9510271e-07
-7.038078e-07
3.4047203e-09
-2.0460414e-07
-3.4970131e-07
-1.279459e-07
-4.8631275e-07
-3.4185255e-08
-5.1913695e-07
-4.9520822e-08
-4.7625967e-07
-1.2809667e-07
-3.9732033e-07
-2.2029658e-07
-3.4611549e-07
-2.8145736e-07
-3.2425018e-07
-3.1153854e-07
-3.2406313e-07
-3.2672165e-07
-3.3087954e-07
-3.3501718e-07
-3.3781255e-07
-3.4066951e-07
-3.4263982e-07
-3.4438191e-07
-3.4584058e-07
-3.4719523e-07
-3.4860772e-07
-3.5026603e-07
-3.5214272e-07
-3.5479629e-07
-3.5733084e-07
-3.6140504e-07
-3.6585803e-07
-3.671973e-07
-3.8267383e-07
-3.6495856e-07
-4.163766e-07
-3.4033033e-07
-4.8211821e-07
-2.8575101e-07
-5.6971028e-07
-2.1330386e-07
-6.4171839e-07
-1.7201286e-07
-6.5567342e-07
-2.0898983e-07
-5.6309615e-07
-3.4737396e-07
-4.8989168e-07
-6.9773543e-07
-2.0640199e-09
-2.0947885e-07
-3.5493364e-07
-1.3203161e-07
-4.9159303e-07
-3.7648193e-08
-5.2446728e-07
-5.1912047e-08
-4.8236857e-07
-1.2705965e-07
-4.053992e-07
-2.1577787e-07
-3.5142498e-07
-2.7987627e-07
-3.2696226e-07
-3.1066373e-07
-3.2487601e-07
-3.2608703e-07
-3.3056503e-07
-3.3437411e-07
-3.3726312e-07
-3.3998833e-07
-3.4214139e-07
-3.4404082e-07
-3.4571026e-07
-3.4729364e-07
-3.4892553e-07
-3.5075618e-07
-3.5280357e-07
-3.5541784e-07
-3.5810189e-07
-3.6173009e-07
-3.6680899e-07
-3.6633327e-07
-3.8401687e-07
-3.6187928e-07
-4.1923221e-07
-3.3465085e-07
-4.8439867e-07
-2.7803089e-07
-5.6954996e-07
-2.0803059e-07
-6.3933445e-07
-1.6690356e-07
-6.5229921e-07
-2.0369385e-07
-5.5892768e-07
-3.4202465e-07
-4.847912e-07
-6.9202808e-07
-7.2687012e-09
-2.1424982e-07
-3.5991568e-07
-1.3618439e-07
-4.9654668e-07
-4.1225879e-08
-5.2932087e-07
-5.4432425e-08
-4.8732588e-07
-1.2576785e-07
-4.1330178e-07
-2.1322815e-07
-3.5653409e-07
-2.7827561e-07
-3.2969264e-07
-3.0983112e-07
-3.2575738e-07
-3.2555411e-07
-3.3037904e-07
-3.3389857e-07
-3.3678881e-07
-3.3947028e-07
-3.4173285e-07
-3.4376003e-07
-3.456021e-07
-3.4737306e-07
-3.4918415e-07
-3.5115344e-07
-3.5332238e-07
-3.5594373e-07
-3.5869512e-07
-3.6190164e-07
-3.6759652e-07
-3.6537796e-07
-3.8528851e-07
-3.5921703e-07
-4.2094794e-07
-3.297784e-07
-4.8578681e-07
-2.7117466e-07
-5.6867043e-07
-2.0334927e-07
-6.3672046e-07
-1.6217577e-07
-6.4879604e-07
-1.9873795e-07
-5.5474943e-07
-3.3694326e-07
-4.7982744e-07
-6.8663489e-07
-1.2223616e-08
-2.1887829e-07
-3.6464503e-07
-1.4032487e-07
-5.0118916e-07
-4.4830753e-08
-5.3378163e-07
-5.712911e-08
-4.9177163e-07
-1.2578655e-07
-4.2042078e-07
-2.1092429e-07
-3.614056e-07
-2.7634398e-07
-3.3271822e-07
-3.0909154e-07
-3.26714e-07
-3.251348e-07
-3.303204e-07
-3.3355175e-07
-3.3641076e-07
-3.3907145e-07
-3.4141602e-07
-3.4353135e-07
-3.4551369e-07
-3.4743444e-07
-3.4938862e-07
-3.5147257e-07
-3.5373395e-07
-3.5634368e-07
-3.5913373e-07
-3.6192533e-07
-3.6821091e-07
-3.6430871e-07
-3.8613327e-07
-3.5578966e-07
-4.2306898e-07
-3.2567398e-07
-4.8656471e-07
-2.6542214e-07
-5.6718773e-07
-1.9910359e-07
-6.3396166e-07
-1.5778888e-07
-6.4525071e-07
-1.9410012e-07
-5.5062733e-07
-3.3214447e-07
-4.7502046e-07
-6.8151951e-07
-1.6937669e-08
-2.2333561e-07
-3.6912247e-07
-1.4439477e-07
-5.0553955e-07
-4.8401893e-08
-5.378995e-07
-5.9898013e-08
-4.9571644e-07
-1.2680569e-07
-4.2706331e-07
-2.0914222e-07
-3.6604278e-07
-2.742289e-07
-3.3565579e-07
-3.0837821e-07
-3.2772765e-07
-3.2482849e-07
-3.3037979e-07
-3.3331735e-07
-3.3613141e-07
-3.3877492e-07
-3.4116233e-07
-3.4336436e-07
-3.4544413e-07
-3.4747838e-07
-3.49542e-07
-3.5170273e-07
-3.5403504e-07
-3.5663963e-07
-3.5943681e-07
-3.6181925e-07
-3.68669e-07
-3.6316112e-07
-3.8685473e-07
-3.5297167e-07
-4.2414428e-07
-3.2139977e-07
-4.8718417e-07
-2.6079873e-07
-5.653958e-07
-1.9522737e-07
-6.3112352e-07
-1.53707e-07
-6.4172609e-07
-1.8975675e-07
-5.4660621e-07
-3.2761432e-07
-4.7039993e-07
-6.7666645e-07
-2.1416008e-08
-2.2760357e-07
-3.7335393e-07
-1.4835147e-07
-5.0961866e-07
-5.1899485e-08
-5.4172376e-07
-6.2701157e-08
-4.9932951e-07
-1.2847142e-07
-4.3243735e-07
-2.084179e-07
-3.705963e-07
-2.7159936e-07
-3.3873279e-07
-3.0783732e-07
-3.2882095e-07
-3.2463521e-07
-3.3054854e-07
-3.3318303e-07
-3.3594547e-07
-3.385688e-07
-3.4097977e-07
-3.4323513e-07
-3.4538965e-07
-3.4750518e-07
-3.4964418e-07
-3.518673e-07
-3.5423343e-07
-3.5682719e-07
-3.5962287e-07
-3.6160419e-07
-3.6898537e-07
-3.6196489e-07
-3.8748535e-07
-3.5025831e-07
-4.2484878e-07
-3.1707159e-07
-4.8754328e-07
-2.5696394e-07
-5.6341397e-07
-1.9168208e-07
-6.2826737e-07
-1.4990244e-07
-6.3826911e-07
-1.856864e-07
-5.4271854e-07
-3.2334201e-07
-4.6598261e-07
-6.7206685e-07
-2.5661939e-08
-2.3167118e-07
-3.7734726e-07
-1.5216556e-07
-5.1344608e-07
-5.5294693e-08
-5.452904e-07
-6.5497493e-08
-5.0265111e-07
-1.3038061e-07
-4.3660816e-07
-2.0791458e-07
-3.746549e-07
-2.7056839e-07
-3.4127751e-07
-3.0745697e-07
-3.2993469e-07
-3.2453482e-07
-3.3081545e-07
-3.3313508e-07
-3.3584531e-07
-3.3844153e-07
-3.4085746e-07
-3.4314316e-07
-3.4534617e-07
-3.4751665e-07
-3.497063e-07
-3.5196525e-07
-3.5434272e-07
-3.5691464e-07
-3.597054e-07
-3.6129695e-07
-3.6916652e-07
-3.6079829e-07
-3.8806027e-07
-3.4760081e-07
-4.2531572e-07
-3.1306033e-07
-4.8725718e-07
-2.5370075e-07
-5.6132338e-07
-1.8842546e-07
-6.2544024e-07
-1.4635139e-07
-6.3491395e-07
-1.8187037e-07
-5.3898727e-07
-3.1931768e-07
-4.617782e-07
-6.6771497e-07
-2.9678495e-08
-2.3553287e-07
-3.8111114e-07
-1.5581718e-07
-5.1703851e-07
-5.8565053e-08
-5.4862277e-07
-6.8242273e-08
-5.0570132e-07
-1.3239945e-07
-4.4001563e-07
-2.0769003e-07
-3.7854795e-07
-2.6996793e-07
-3.4370477e-07
-3.0719153e-07
-3.3109378e-07
-3.2451153e-07
-3.3116581e-07
-3.3316056e-07
-3.3582173e-07
-3.3838259e-07
-3.4078708e-07
-3.4308346e-07
-3.4531239e-07
-3.4751435e-07
-3.497317e-07
-3.520049e-07
-3.5437471e-07
-3.569125e-07
-3.5969619e-07
-3.6090723e-07
-3.6921888e-07
-3.5963435e-07
-3.8824315e-07
-3.455073e-07
-4.2564567e-07
-3.0930927e-07
-4.8639748e-07
-2.5084189e-07
-5.5918121e-07
-1.8541922e-07
-6.2267862e-07
-1.4303375e-07
-6.3168461e-07
-1.7829245e-07
-5.3542726e-07
-3.1553158e-07
-4.5779244e-07
-6.6360645e-07
-3.3469096e-08
-2.3918681e-07
-3.8465447e-07
-1.5929365e-07
-5.2041012e-07
-6.1694465e-08
-5.5173932e-07
-7.0903413e-08
-5.0850984e-07
-1.3443777e-07
-4.4282738e-07
-2.0788946e-07
-3.8226188e-07
-2.6959503e-07
-3.4608508e-07
-3.0696945e-07
-3.3228794e-07
-3.2454759e-07
-3.3158315e-07
-3.3324744e-07
-3.3586526e-07
-3.3838243e-07
-3.4076141e-07
-3.4305146e-07
-3.4528682e-07
-3.4749988e-07
-3.4972496e-07
-3.5199418e-07
-3.5433997e-07
-3.5683192e-07
-3.5960727e-07
-3.6044554e-07
-3.6914006e-07
-3.5832518e-07
-3.8837521e-07
-3.4364052e-07
-4.2554022e-07
-3.0616186e-07
-4.8520313e-07
-2.4830872e-07
-5.5704606e-07
-1.8263033e-07
-6.2000623e-07
-1.3993111e-07
-6.2859663e-07
-1.7493813e-07
-5.3204716e-07
-3.1197413e-07
-4.5402785e-07
-6.5973735e-07
-3.7037788e-08
-2.4263376e-07
-3.8798587e-07
-1.6258788e-07
-5.235733e-07
-6.467272e-08
-5.5465574e-07
-7.3460792e-08
-5.1111045e-07
-1.3646379e-07
-4.4526085e-07
-2.0861444e-07
-3.8574747e-07
-2.6930072e-07
-3.4837377e-07
-3.0674804e-07
-3.3347907e-07
-3.2462616e-07
-3.3205216e-07
-3.3338551e-07
-3.35967e-07
-3.3843253e-07
-3.40774e-07
-3.4304315e-07
-3.4526829e-07
-3.4747495e-07
-3.496906e-07
-3.5194022e-07
-3.5424855e-07
-3.5668324e-07
-3.5945079e-07
-3.5993116e-07
-3.689803e-07
-3.5720455e-07
-3.8818652e-07
-3.4184172e-07
-4.2524344e-07
-3.0354973e-07
-4.8378193e-07
-2.4598471e-07
-5.5494144e-07
-1.8002974e-07
-6.1743785e-07
-1.3702712e-07
-6.2565925e-07
-1.7179459e-07
-5.2885088e-07
-3.0863616e-07
-4.5048422e-07
-6.5610335e-07
-4.0389299e-08
-2.4587634e-07
-3.9111358e-07
-1.6569703e-07
-5.2653922e-07
-6.7494761e-08
-5.573867e-07
-7.5905081e-08
-5.1353367e-07
-1.3844659e-07
-4.4743851e-07
-2.0974314e-07
-3.8882267e-07
-2.6928168e-07
-3.5050271e-07
-3.0641499e-07
-3.3468066e-07
-3.2476409e-07
-3.3256587e-07
-3.335677e-07
-3.3611914e-07
-3.3852533e-07
-3.4081906e-07
-3.4305497e-07
-3.4525582e-07
-3.474413e-07
-3.4963308e-07
-3.5185011e-07
-3.5411004e-07
-3.5647889e-07
-3.5923969e-07
-3.5937005e-07
-3.6874786e-07
-3.5611034e-07
-3.8788365e-07
-3.4006032e-07
-4.2481545e-07
-3.0133948e-07
-4.8227939e-07
-2.4382956e-07
-5.5289087e-07
-1.7759825e-07
-6.1498397e-07
-1.3430811e-07
-6.2287725e-07
-1.6885044e-07
-5.2583904e-07
-3.0550893e-07
-4.4715903e-07
-6.5269929e-07
-4.352903e-08
-2.4891842e-07
-3.9404532e-07
-1.6862143e-07
-5.293179e-07
-7.0159251e-08
-5.5994533e-07
-7.8232764e-08
-5.1580466e-07
-1.4038126e-07
-4.4947259e-07
-2.1111508e-07
-3.913449e-07
-2.6951088e-07
-3.5231513e-07
-3.0650706e-07
-3.3581556e-07
-3.2493692e-07
-3.3311923e-07
-3.3378884e-07
-3.363147e-07
-3.3865408e-07
-3.4089138e-07
-3.4308374e-07
-3.4524861e-07
-3.4740065e-07
-3.4955668e-07
-3.5173046e-07
-3.5393298e-07
-3.5622759e-07
-3.5898084e-07
-3.5876373e-07
-3.6845084e-07
-3.5502798e-07
-3.8755727e-07
-3.3838496e-07
-4.2421842e-07
-2.993676e-07
-4.8076563e-07
-2.418293e-07
-5.5091542e-07
-1.7532327e-07
-6.1265193e-07
-1.3176283e-07
-6.2025228e-07
-1.6609565e-07
-5.2300979e-07
-3.025841e-07
-4.4404799e-07
-6.4951909e-07
-4.6463085e-08
-2.5176475e-07
-3.9678834e-07
-1.7136355e-07
-5.3191823e-07
-7.2667158e-08
-5.623423e-07
-8.0441035e-08
-5.179368e-07
-1.4225183e-07
-4.5138214e-07
-2.1255856e-07
-3.9349137e-07
-2.6996822e-07
-3.5388605e-07
-3.0645721e-07
-3.3712839e-07
-3.2520818e-07
-3.3370477e-07
-3.340426e-07
-3.3654711e-07
-3.3881271e-07
-3.4098629e-07
-3.4312664e-07
-3.4524601e-07
-3.4735467e-07
-3.4946535e-07
-3.5158734e-07
-3.5372541e-07
-3.5593894e-07
-3.5868615e-07
-3.5813739e-07
-3.6810263e-07
-3.5393364e-07
-3.8711455e-07
-3.3665769e-07
-4.2365015e-07
-2.9766843e-07
-4.7929632e-07
-2.3997433e-07
-5.4902958e-07
-1.7319504e-07
-6.1044586e-07
-1.2938161e-07
-6.1778366e-07
-1.6352127e-07
-5.2035986e-07
-2.9985326e-07
-4.4114537e-07
-6.4655589e-07
-4.9193812e-08
-2.5442024e-07
-3.9934948e-07
-1.7392735e-07
-5.3434818e-07
-7.5020872e-08
-5.6458592e-07
-8.2527448e-08
-5.1993654e-07
-1.4404002e-07
-4.5315746e-07
-2.1395976e-07
-3.9530688e-07
-2.704385e-07
-3.5548708e-07
-3.06701e-07
-3.3824538e-07
-3.2551475e-07
-3.3431415e-07
-3.3432134e-07
-3.3680968e-07
-3.3899549e-07
-3.4109953e-07
-3.4318115e-07
-3.4524743e-07
-3.4730485e-07
-3.4936266e-07
-3.5142636e-07
-3.5349473e-07
-3.5562128e-07
-3.5836489e-07
-3.5749732e-07
-3.6771948e-07
-3.5283223e-07
-3.8662487e-07
-3.3503625e-07
-4.22961e-07
-2.9614244e-07
-4.7788115e-07
-2.3825102e-07
-5.472405e-07
-1.7120441e-07
-6.0836669e-07
-1.2715568e-07
-6.1546865e-07
-1.6111899e-07
-5.1788603e-07
-2.9730716e-07
-4.3844473e-07
-6.4380236e-07
-5.1733929e-08
-2.568916e-07
-4.0173545e-07
-1.7631785e-07
-5.3661503e-07
-7.7223876e-08
-5.666832e-07
-8.4491048e-08
-5.218083e-07
-1.4573323e-07
-4.5479871e-07
-2.1528953e-07
-3.9684771e-07
-2.7082915e-07
-3.5717704e-07
-3.0708829e-07
-3.3933248e-07
-3.2585043e-07
-3.349432e-07
-3.3461872e-07
-3.3709599e-07
-3.3919689e-07
-3.4122704e-07
-3.4324486e-07
-3.4525228e-07
-3.4725249e-07
-3.4925187e-07
-3.5125268e-07
-3.5324813e-07
-3.5528399e-07
-3.5802627e-07
-3.56858e-07
-3.6732536e-07
-3.5174342e-07
-3.8612382e-07
-3.3347502e-07
-4.2218436e-07
-2.9474391e-07
-4.7651919e-07
-2.3664349e-07
-5.4554953e-07
-1.6934231e-07
-6.064125e-07
-1.2507675e-07
-6.1330268e-07
-1.5887859e-07
-5.155772e-07
-2.9494497e-07
-4.3594073e-07
-6.4125122e-07
-5.4086126e-08
-2.5918435e-07
-4.039524e-07
-1.7854066e-07
-5.3872551e-07
-7.9280618e-08
-5.6864072e-07
-8.6333288e-08
-5.235579e-07
-1.4732835e-07
-4.5631892e-07
-2.1655209e-07
-3.9821502e-07
-2.7135528e-07
-3.5872794e-07
-3.0751692e-07
-3.4041119e-07
-3.2620423e-07
-3.3557985e-07
-3.3492723e-07
-3.3740003e-07
-3.3941157e-07
-3.4136492e-07
-3.4331544e-07
-3.4525993e-07
-3.4719878e-07
-3.4913585e-07
-3.5107092e-07
-3.5299207e-07
-3.5493559e-07
-3.5767823e-07
-3.5623031e-07
-3.6687713e-07
-3.507466e-07
-3.8561144e-07
-3.3195412e-07
-4.213324e-07
-2.9346056e-07
-4.7521696e-07
-2.3513711e-07
-5.4395308e-07
-1.6759924e-07
-6.045791e-07
-1.2313687e-07
-6.112807e-07
-1.5679316e-07
-5.1342789e-07
-2.9275901e-07
-4.3362607e-07
-6.3889482e-07
-5.6257066e-08
-2.6130443e-07
-4.0600616e-07
-1.8060182e-07
-5.4068592e-07
-8.1196385e-08
-5.7046506e-07
-8.8057908e-08
-5.2519226e-07
-1.488275e-07
-4.5773385e-07
-2.1776136e-07
-3.9947304e-07
-2.7197866e-07
-3.6018582e-07
-3.0793426e-07
-3.4146398e-07
-3.2656436e-07
-3.3621555e-07
-3.3523937e-07
-3.3771554e-07
-3.3963422e-07
-3.4150938e-07
-3.4339064e-07
-3.4526966e-07
-3.4714447e-07
-3.4901696e-07
-3.5088493e-07
-3.5273189e-07
-3.5458257e-07
-3.573288e-07
-3.5561406e-07
-3.6640481e-07
-3.4982845e-07
-3.8505437e-07
-3.3058711e-07
-4.2040985e-07
-2.9224274e-07
-4.7396351e-07
-2.3371538e-07
-5.424441e-07
-1.6596568e-07
-6.0286082e-07
-1.2132853e-07
-6.0939749e-07
-1.5485856e-07
-5.1143747e-07
-2.9073625e-07
-4.3149218e-07
-6.3672565e-07
-5.8252916e-08
-2.6325767e-07
-4.0790211e-07
-1.8250756e-07
-5.4250218e-07
-8.297718e-08
-5.7216295e-07
-8.9670658e-08
-5.2671958e-07
-1.502367e-07
-4.5905635e-07
-2.1890982e-07
-4.006082e-07
-2.7264937e-07
-3.6162343e-07
-3.0835193e-07
-3.4248412e-07
-3.2692168e-07
-3.3683875e-07
-3.3554747e-07
-3.3803473e-07
-3.398595e-07
-3.4165685e-07
-3.4346834e-07
-3.4528069e-07
-3.470901e-07
-3.4889699e-07
-3.5069768e-07
-3.524717e-07
-3.5422996e-07
-3.5698452e-07
-3.5501207e-07
-3.6593753e-07
-3.4896075e-07
-3.8448085e-07
-3.2936179e-07
-4.19454e-07
-2.9106809e-07
-4.7275109e-07
-2.3236571e-07
-5.4101539e-07
-1.6443314e-07
-6.0125142e-07
-1.196448e-07
-6.0764708e-07
-1.5306861e-07
-5.0959787e-07
-2.8887285e-07
-4.2953292e-07
-6.347374e-07
-6.0079077e-08
-2.6504961e-07
-4.0964491e-07
-1.8426412e-07
-5.441797e-07
-8.462958e-08
-5.7374103e-07
-9.1178692e-08
-5.2814864e-07
-1.5156536e-07
-4.6030299e-07
-2.2001317e-07
-4.016859e-07
-2.7343528e-07
-3.6299076e-07
-3.0873352e-07
-3.4341684e-07
-3.2725452e-07
-3.374379e-07
-3.3584538e-07
-3.3835085e-07
-3.400828e-07
-3.4180428e-07
-3.4354666e-07
-3.4529226e-07
-3.4703596e-07
-3.4877718e-07
-3.5051127e-07
-3.522143e-07
-3.5388104e-07
-3.566501e-07
-3.544333e-07
-3.6549618e-07
-3.4816309e-07
-3.839058e-07
-3.2822445e-07
-4.184818e-07
-2.8992734e-07
-4.715779e-07
-2.3108148e-07
-5.3966145e-07
-1.6299496e-07
-5.9974461e-07
-1.180795e-07
-6.0602303e-07
-1.5141769e-07
-5.0790267e-07
-2.8716452e-07
-4.2774322e-07
-6.3292534e-07
-6.1739919e-08
-2.6668543e-07
-4.1123802e-07
-1.8587759e-07
-5.4572319e-07
-8.6160723e-08
-5.7520544e-07
-9.25899e-08
-5.2948746e-07
-1.5282306e-07
-4.614866e-07
-2.2108192e-07
-4.027278e-07
-2.7427116e-07
-3.6418113e-07
-3.0917734e-07
-3.4431489e-07
-3.2754006e-07
-3.3800492e-07
-3.3613027e-07
-3.3866024e-07
-3.4030088e-07
-3.4194932e-07
-3.4362408e-07
-3.4530366e-07
-3.4698214e-07
-3.4865829e-07
-3.5032693e-07
-3.5196119e-07
-3.5353708e-07
-3.5632434e-07
-3.5387161e-07
-3.650754e-07
-3.474111e-07
-3.8333031e-07
-3.2717361e-07
-4.1752566e-07
-2.8882629e-07
-4.7044736e-07
-2.2986092e-07
-5.3837844e-07
-1.6164628e-07
-5.9833406e-07
-1.1662726e-07
-6.0451849e-07
-1.4990113e-07
-5.0634573e-07
-2.8560785e-07
-4.2611932e-07
-6.3128664e-07
-6.3238193e-08
-2.6817032e-07
-4.1268275e-07
-1.8735407e-07
-5.4713645e-07
-8.7578567e-08
-5.7656141e-07
-9.3912634e-08
-5.3074217e-07
-1.5401777e-07
-4.6261408e-07
-2.2212023e-07
-4.0374154e-07
-2.7512869e-07
-3.6525477e-07
-3.0963758e-07
-3.4507756e-07
-3.2787403e-07
-3.3854177e-07
-3.3640205e-07
-3.3896132e-07
-3.405119e-07
-3.4209048e-07
-3.4369957e-07
-3.4531439e-07
-3.4692861e-07
-3.4854069e-07
-3.5014526e-07
-3.5171291e-07
-3.531982e-07
-3.560052e-07
-3.5331564e-07
-3.6466509e-07
-3.4666163e-07
-3.8277543e-07
-3.2621615e-07
-4.1661447e-07
-2.8777643e-07
-4.6936433e-07
-2.2870468e-07
-5.3716285e-07
-1.603836e-07
-5.9701279e-07
-1.1528363e-07
-6.0312582e-07
-1.4851524e-07
-5.0492072e-07
-2.842007e-07
-4.24659e-07
-6.2982105e-07
-6.4573317e-08
-2.6950981e-07
-4.1397715e-07
-1.8870056e-07
-5.4842235e-07
-8.8892562e-08
-5.7781289e-07
-9.515611e-08
-5.319166e-07
-1.5515604e-07
-4.6368689e-07
-2.2312727e-07
-4.0472366e-07
-2.7598225e-07
-3.6623418e-07
-3.1009857e-07
-3.4577444e-07
-3.2820205e-07
-3.3905671e-07
-3.3666166e-07
-3.3925372e-07
-3.4071513e-07
-3.4222699e-07
-3.4377252e-07
-3.4532409e-07
-3.4687533e-07
-3.4842457e-07
-3.4996651e-07
-3.5146957e-07
-3.5286435e-07
-3.5569318e-07
-3.5278179e-07
-3.6427084e-07
-3.4594147e-07
-3.8221168e-07
-3.2531162e-07
-4.1574757e-07
-2.867828e-07
-4.6833052e-07
-2.2761347e-07
-5.360099e-07
-1.5920429e-07
-5.9577227e-07
-1.1404512e-07
-6.0183571e-07
-1.4725748e-07
-5.036204e-07
-2.8294261e-07
-4.2336206e-07
-6.2853183e-07
-6.57358e-08
-2.706965e-07
-4.1512864e-07
-1.8992953e-07
-5.4958316e-07
-9.0114872e-08
-5.7896205e-07
-9.6331503e-08
-5.3301232e-07
-1.562446e-07
-4.6470289e-07
-2.2409997e-07
-4.0566136e-07
-2.7680092e-07
-3.6711773e-07
-3.105544e-07
-3.4645704e-07
-3.2852166e-07
-3.39556e-07
-3.3691143e-07
-3.3953812e-07
-3.4091067e-07
-3.4235865e-07
-3.4384267e-07
-3.4533262e-07
-3.4682229e-07
-3.4831002e-07
-3.4979073e-07
-3.5123093e-07
-3.5253484e-07
-3.5538405e-07
-3.5226309e-07
-3.6389481e-07
-3.4525732e-07
-3.8164257e-07
-3.2444742e-07
-4.1492096e-07
-2.8584674e-07
-4.6734339e-07
-2.2658731e-07
-5.3491211e-07
-1.5810655e-07
-5.9460114e-07
-1.1290952e-07
-6.00636e-07
-1.4612678e-07
-5.0243561e-07
-2.818349e-07
-4.2223067e-07
-6.2742709e-07
-6.6712751e-08
-2.717253e-07
-4.161394e-07
-1.9105522e-07
-5.5061828e-07
-9.1261623e-08
-5.8000832e-07
-9.7453635e-08
-5.3402835e-07
-1.5729271e-07
-4.6565839e-07
-2.2503867e-07
-4.0654629e-07
-2.7758287e-07
-3.6794474e-07
-3.1102861e-07
-3.4710619e-07
-3.2882577e-07
-3.4003285e-07
-3.371528e-07
-3.3981533e-07
-3.4109901e-07
-3.4248561e-07
-3.4391004e-07
-3.4533999e-07
-3.4676959e-07
-3.4819718e-07
-3.4961803e-07
-3.5099686e-07
-3.522089e-07
-3.550707e-07
-3.5173874e-07
-3.6350576e-07
-3.4453846e-07
-3.8114744e-07
-3.236585e-07
-4.1413677e-07
-2.8496864e-07
-4.6639634e-07
-2.2562606e-07
-5.3385804e-07
-1.5709009e-07
-5.9348357e-07
-1.1187672e-07
-5.9950975e-07
-1.45124e-07
-5.0135362e-07
-2.808808e-07
-4.2126989e-07
-6.2652169e-07
-6.7489591e-08
-2.7259707e-07
-4.170033e-07
-1.9209328e-07
-5.5152224e-07
-9.2355015e-08
-5.8094693e-07
-9.8543343e-08
-5.3496034e-07
-1.5831453e-07
-4.6654865e-07
-2.2594945e-07
-4.0737311e-07
-2.7833121e-07
-3.6871924e-07
-3.1150138e-07
-3.4773155e-07
-3.2911883e-07
-3.4049651e-07
-3.3739033e-07
-3.4008644e-07
-3.4128081e-07
-3.4260819e-07
-3.4397482e-07
-3.4534634e-07
-3.467174e-07
-3.4808633e-07
-3.4944877e-07
-3.5076793e-07
-3.5188887e-07
-3.5475667e-07
-3.5123776e-07
-3.6313245e-07
-3.4389179e-07
-3.8062096e-07
-3.2289545e-07
-4.1337605e-07
-2.8414665e-07
-4.654788e-07
-2.2473105e-07
-5.3283095e-07
-1.5615742e-07
-5.9239707e-07
-1.1095007e-07
-5.9843273e-07
-1.4425279e-07
-5.0035582e-07
-2.8008511e-07
-4.2048818e-07
-6.2583986e-07
-6.8048186e-08
-2.7332364e-07
-4.1770162e-07
-1.9306289e-07
-5.5228308e-07
-9.342686e-08
-5.8176673e-07
-9.9630651e-08
-5.3579856e-07
-1.5933163e-07
-4.6736623e-07
-2.2684468e-07
-4.0813761e-07
-2.7905096e-07
-3.6942045e-07
-3.1191681e-07
-3.4838141e-07
-3.2942532e-07
-3.4095647e-07
-3.3762797e-07
-3.403519e-07
-3.4145656e-07
-3.4272658e-07
-3.4403703e-07
-3.4535182e-07
-3.46666e-07
-3.4797786e-07
-3.4928346e-07
-3.5054488e-07
-3.5157599e-07
-3.5444862e-07
-3.5076773e-07
-3.6271355e-07
-3.4320772e-07
-3.8016744e-07
-3.222145e-07
-4.1264054e-07
-2.8338245e-07
-4.645751e-07
-2.2390687e-07
-5.3180678e-07
-1.5531621e-07
-5.9130947e-07
-1.1013889e-07
-5.9736995e-07
-1.4352103e-07
-4.9941441e-07
-2.7945316e-07
-4.1989779e-07
-6.2541836e-07
-6.8355453e-08
-2.7391018e-07
-4.1822176e-07
-1.9399736e-07
-5.5288216e-07
-9.4524027e-08
-5.8244685e-07
-1.0075902e-07
-5.3652475e-07
-1.6037583e-07
-4.6809819e-07
-2.2774393e-07
-4.0883434e-07
-2.7976529e-07
-3.7009021e-07
-3.1237353e-07
-3.489547e-07
-3.2969998e-07
-3.414039e-07
-3.3786556e-07
-3.406112e-07
-3.4162633e-07
-3.4284079e-07
-3.4409679e-07
-3.4535661e-07
-3.4661569e-07
-3.4787225e-07
-3.4912283e-07
-3.5032868e-07
-3.5127198e-07
-3.541476e-07
-3.5031877e-07
-3.6230292e-07
-3.4258823e-07
-3.7968347e-07
-3.2157534e-07
-4.1190905e-07
-2.8267855e-07
-4.6366291e-07
-2.2316422e-07
-5.307515e-07
-1.5458271e-07
-5.9017468e-07
-1.0946207e-07
-5.9627053e-07
-1.429431e-07
-4.9848814e-07
-2.7898834e-07
-4.1951441e-07
-6.2530963e-07
-6.8362805e-08
-2.7436275e-07
-4.1855423e-07
-1.9494774e-07
-5.5329185e-07
-9.571479e-08
-5.8295231e-07
-1.0199123e-07
-5.3710749e-07
-1.614932e-07
-4.6872233e-07
-2.2867606e-07
-4.0945083e-07
-2.8047909e-07
-3.7066574e-07
-3.1276762e-07
-3.4955543e-07
-3.3002798e-07
-3.4181922e-07
-3.3810413e-07
-3.4086291e-07
-3.4178952e-07
-3.429505e-07
-3.4415404e-07
-3.4536083e-07
-3.4656681e-07
-3.4777007e-07
-3.4896764e-07
-3.5012043e-07
-3.5097891e-07
-3.538551e-07
-3.4989025e-07
-3.6190302e-07
-3.420202e-07
-3.7918034e-07
-3.2098286e-07
-4.1116523e-07
-2.8204558e-07
-4.6271196e-07
-2.225238e-07
-5.2961713e-07
-1.5398656e-07
-5.8892706e-07
-1.0895224e-07
-5.9506215e-07
-1.4254188e-07
-4.9751897e-07
-2.7868754e-07
-4.1935455e-07
-6.2558197e-07
-6.8014877e-08
-2.7469766e-07
-4.1869605e-07
-1.9596939e-07
-5.5346991e-07
-9.7085113e-08
-5.8322888e-07
-1.0341576e-07
-5.3749699e-07
-1.6274908e-07
-4.692023e-07
-2.296834e-07
-4.099681e-07
-2.8122045e-07
-3.7117359e-07
-3.1320223e-07
-3.5008589e-07
-3.3036804e-07
-3.4219971e-07