/*--------------------------------*- C++ -*----------------------------------*\
  =========                 |
  \\      /  F ield         | OpenFOAM: The Open Source CFD Toolbox
   \\    /   O peration     | Website:  https://openfoam.org
    \\  /    A nd           | Version:  11
     \\/     M anipulation  |
\*---------------------------------------------------------------------------*/
FoamFile
{
    format      ascii;
    class       volScalarField;
    location    "60/Air";
    object      p_rgh;
}
// * * * * * * * * * * * * * * * * * * * * * * * * * * * * * * * * * * * * * //

dimensions      [1 -1 -2 0 0 0 0];

internalField   nonuniform List<scalar> 
124340
(
-5.4048525e-12
-2.7181653e-08
-4.3581448e-08
-3.3336856e-08
-5.8937678e-08
-2.2238016e-08
-6.1835033e-08
-2.4288246e-08
-5.865266e-08
-3.7535675e-08
-5.8063262e-08
-5.3146541e-08
-6.5433962e-08
-6.9426677e-08
-7.7339252e-08
-8.4769765e-08
-9.0746709e-08
-9.6407823e-08
-1.0003651e-07
-1.0260601e-07
-1.0363464e-07
-1.038356e-07
-1.0303659e-07
-1.0178187e-07
-1.0012113e-07
-9.8307506e-08
-9.6535885e-08
-9.5058952e-08
-9.3912385e-08
-9.3653039e-08
-9.4080684e-08
-9.6000805e-08
-9.8915745e-08
-1.0374712e-07
-1.0909034e-07
-1.1608021e-07
-1.2404164e-07
-1.2806133e-07
-1.4107075e-07
-1.3570939e-07
-1.5852982e-07
-1.3539288e-07
-1.7150893e-07
-1.3274545e-07
-1.7281684e-07
-1.3781653e-07
-1.6356917e-07
-1.5433463e-07
-1.7077786e-07
-1.9777694e-07
-8.5036761e-10
-2.9606561e-08
-4.592865e-08
-3.4008424e-08
-6.2044912e-08
-2.1286568e-08
-6.5061899e-08
-2.4743237e-08
-6.0881654e-08
-4.0143977e-08
-5.9194526e-08
-5.557864e-08
-6.5669992e-08
-6.9470149e-08
-7.5524103e-08
-8.2656849e-08
-8.8178506e-08
-9.4435075e-08
-9.8257417e-08
-1.0129324e-07
-1.0263767e-07
-1.031655e-07
-1.0257756e-07
-1.0150676e-07
-9.9996784e-08
-9.8320295e-08
-9.6693816e-08
-9.5386398e-08
-9.4428269e-08
-9.445477e-08
-9.5159846e-08
-9.7517523e-08
-1.0069337e-07
-1.0596148e-07
-1.1084664e-07
-1.1767927e-07
-1.2424427e-07
-1.2780477e-07
-1.3993514e-07
-1.3397894e-07
-1.5802458e-07
-1.3272293e-07
-1.7249024e-07
-1.2965153e-07
-1.7414593e-07
-1.3517149e-07
-1.6334411e-07
-1.5220913e-07
-1.6824942e-07
-1.9725954e-07
5.7080222e-09
-2.7974646e-08
-4.6519783e-08
-3.3195803e-08
-6.4701299e-08
-2.1006972e-08
-6.7821297e-08
-2.6758676e-08
-6.3597266e-08
-4.304886e-08
-6.1510695e-08
-5.7619549e-08
-6.6802683e-08
-6.939108e-08
-7.4138678e-08
-8.0384637e-08
-8.5466216e-08
-9.1749567e-08
-9.5791749e-08
-9.9281538e-08
-1.0100754e-07
-1.019518e-07
-1.0170785e-07
-1.0097103e-07
-9.9762033e-08
-9.8377925e-08
-9.7047569e-08
-9.606575e-08
-9.5434527e-08
-9.5857715e-08
-9.6912607e-08
-9.9695973e-08
-1.0294007e-07
-1.0859349e-07
-1.1296754e-07
-1.1898326e-07
-1.2441268e-07
-1.2713762e-07
-1.3817794e-07
-1.3258921e-07
-1.5483961e-07
-1.305587e-07
-1.7160337e-07
-1.2704483e-07
-1.7505483e-07
-1.3273921e-07
-1.6444978e-07
-1.5181805e-07
-1.6970473e-07
-2.0393479e-07
9.8092317e-09
-2.7783402e-08
-4.7619345e-08
-3.3837928e-08
-6.7297973e-08
-2.168603e-08
-7.0347554e-08
-2.9143268e-08
-6.5870753e-08
-4.5271468e-08
-6.3639431e-08
-5.9172564e-08
-6.7901197e-08
-6.9519634e-08
-7.3593059e-08
-7.9045973e-08
-8.3614699e-08
-8.9725946e-08
-9.3621364e-08
-9.7355993e-08
-9.9368448e-08
-1.006517e-07
-1.0074799e-07
-1.0036452e-07
-9.9499466e-08
-9.8453397e-08
-9.7461742e-08
-9.6824939e-08
-9.6536706e-08
-9.7316107e-08
-9.8643066e-08
-1.0163959e-07
-1.0494423e-07
-1.103124e-07
-1.1429598e-07
-1.1958593e-07
-1.2441356e-07
-1.2630151e-07
-1.3678686e-07
-1.3091519e-07
-1.524116e-07
-1.2842204e-07
-1.6994365e-07
-1.2476599e-07
-1.7507325e-07
-1.3035758e-07
-1.6427108e-07
-1.5092387e-07
-1.6990364e-07
-2.0809542e-07
1.0758243e-08
-2.892204e-08
-4.8949345e-08
-3.4353816e-08
-6.9724128e-08
-2.3097625e-08
-7.245149e-08
-3.1641773e-08
-6.7238712e-08
-4.6684446e-08
-6.529276e-08
-6.0154364e-08
-6.8806509e-08
-6.9768582e-08
-7.3743344e-08
-7.8495131e-08
-8.2651666e-08
-8.8311193e-08
-9.2133672e-08
-9.5810324e-08
-9.79674e-08
-9.9475878e-08
-9.9860626e-08
-9.978495e-08
-9.9244358e-08
-9.852853e-08
-9.7864859e-08
-9.7542324e-08
-9.7550744e-08
-9.8567628e-08
-1.0007568e-07
-1.0310093e-07
-1.0629836e-07
-1.1131044e-07
-1.1498747e-07
-1.1959548e-07
-1.2430009e-07
-1.2547676e-07
-1.3584756e-07
-1.2927495e-07
-1.5076631e-07
-1.2629641e-07
-1.6855114e-07
-1.2241152e-07
-1.7466353e-07
-1.2821799e-07
-1.6377124e-07
-1.4967978e-07
-1.6900117e-07
-2.0909129e-07
9.5288146e-09
-3.1115975e-08
-5.0832268e-08
-3.5458133e-08
-7.1883763e-08
-2.4565923e-08
-7.464658e-08
-3.3770583e-08
-6.8553461e-08
-4.7626855e-08
-6.666506e-08
-6.077717e-08
-6.9639083e-08
-7.009206e-08
-7.430293e-08
-7.8454447e-08
-8.2318916e-08
-8.7472223e-08
-9.108012e-08
-9.4608715e-08
-9.6808383e-08
-9.8441889e-08
-9.9057707e-08
-9.9246913e-08
-9.9005051e-08
-9.8598145e-08
-9.8239052e-08
-9.819393e-08
-9.8453925e-08
-9.9629119e-08
-1.0123407e-07
-1.0417288e-07
-1.0716389e-07
-1.1177655e-07
-1.1526148e-07
-1.1925042e-07
-1.2412052e-07
-1.2464294e-07
-1.3521925e-07
-1.2768725e-07
-1.4966568e-07
-1.2414001e-07
-1.6738328e-07
-1.1992093e-07
-1.7398926e-07
-1.2620538e-07
-1.6252847e-07
-1.4779049e-07
-1.6706036e-07
-2.0784557e-07
7.2564491e-09
-3.3682389e-08
-5.3082957e-08
-3.6962995e-08
-7.4124942e-08
-2.6242156e-08
-7.6735834e-08
-3.5272886e-08
-7.0177976e-08
-4.8403386e-08
-6.7985345e-08
-6.1260435e-08
-7.0510608e-08
-7.0551958e-08
-7.5060219e-08
-7.8657999e-08
-8.2345473e-08
-8.6989289e-08
-9.0340983e-08
-9.3663505e-08
-9.5846527e-08
-9.7540315e-08
-9.8342193e-08
-9.8757168e-08
-9.8784833e-08
-9.866101e-08
-9.8579306e-08
-9.8776465e-08
-9.924941e-08
-1.0052715e-07
-1.0218302e-07
-1.0497866e-07
-1.0774121e-07
-1.1192285e-07
-1.1533442e-07
-1.1873625e-07
-1.239117e-07
-1.2375058e-07
-1.347572e-07
-1.2607674e-07
-1.4894633e-07
-1.2188873e-07
-1.6626806e-07
-1.1731674e-07
-1.7310455e-07
-1.240366e-07
-1.6084163e-07
-1.4547074e-07
-1.6462806e-07
-2.0545155e-07
4.5770991e-09
-3.6306134e-08
-5.5519637e-08
-3.8713549e-08
-7.6456966e-08
-2.7883447e-08
-7.8866747e-08
-3.6326279e-08
-7.2198742e-08
-4.9168514e-08
-6.9390979e-08
-6.172817e-08
-7.1459654e-08
-7.1013761e-08
-7.5875547e-08
-7.896231e-08
-8.2555323e-08
-8.6710735e-08
-8.9813503e-08
-9.2918254e-08
-9.5047273e-08
-9.6759948e-08
-9.7712734e-08
-9.8319142e-08
-9.8585869e-08
-9.8716606e-08
-9.8883154e-08
-9.929046e-08
-9.9943814e-08
-1.0128461e-07
-1.0295689e-07
-1.0557682e-07
-1.0818218e-07
-1.1191571e-07
-1.1531626e-07
-1.1815544e-07
-1.2369996e-07
-1.227689e-07
-1.3436631e-07
-1.2435908e-07
-1.4821098e-07
-1.1949411e-07
-1.6514288e-07
-1.147245e-07
-1.7204398e-07
-1.215962e-07
-1.5893308e-07
-1.4291343e-07
-1.6200133e-07
-2.0262134e-07
1.8166141e-09
-3.888797e-08
-5.8032171e-08
-4.0589252e-08
-7.8834365e-08
-2.9350822e-08
-8.1027591e-08
-3.6978488e-08
-7.4703789e-08
-5.0044389e-08
-7.0956352e-08
-6.222299e-08
-7.2512188e-08
-7.1509208e-08
-7.6707008e-08
-7.9301775e-08
-8.2853983e-08
-8.6541367e-08
-8.9425756e-08
-9.2334646e-08
-9.4386736e-08
-9.6092487e-08
-9.7167171e-08
-9.7934567e-08
-9.8409535e-08
-9.8764663e-08
-9.9149326e-08
-9.9737461e-08
-1.0054387e-07
-1.0192405e-07
-1.0359623e-07
-1.0604952e-07
-1.0852272e-07
-1.1182192e-07
-1.1526276e-07
-1.1753484e-07
-1.2340707e-07
-1.2168206e-07
-1.3401193e-07
-1.2248298e-07
-1.4761163e-07
-1.1698214e-07
-1.6415215e-07
-1.1205156e-07
-1.7078337e-07
-1.1894376e-07
-1.5686456e-07
-1.4020763e-07
-1.592373e-07
-1.9962595e-07
-9.2729615e-10
-4.1423308e-08
-6.0560498e-08
-4.2521455e-08
-8.12585e-08
-3.0730143e-08
-8.3276112e-08
-3.7314279e-08
-7.7615736e-08
-5.0967196e-08
-7.2680885e-08
-6.2757923e-08
-7.3660534e-08
-7.203131e-08
-7.7542289e-08
-7.9651144e-08
-8.318806e-08
-8.6443653e-08
-8.9158085e-08
-9.1847981e-08
-9.3844943e-08
-9.5531487e-08
-9.670271e-08
-9.7603323e-08
-9.82561e-08
-9.8804996e-08
-9.9377715e-08
-1.0011981e-07
-1.0105541e-07
-1.024598e-07
-1.0411746e-07
-1.0642781e-07
-1.0879402e-07
-1.1168736e-07
-1.1518782e-07
-1.1689068e-07
-1.2312914e-07
-1.2050979e-07
-1.3371281e-07
-1.2053248e-07
-1.4705338e-07
-1.1433703e-07
-1.6330666e-07
-1.0923741e-07
-1.6942633e-07
-1.1617815e-07
-1.546921e-07
-1.3744167e-07
-1.5643025e-07
-1.966228e-07
-3.6236615e-09
-4.393414e-08
-6.3086551e-08
-4.4501217e-08
-8.3777714e-08
-3.196179e-08
-8.5729642e-08
-3.7973479e-08
-8.0293412e-08
-5.1796606e-08
-7.4548441e-08
-6.3326929e-08
-7.4899833e-08
-7.256785e-08
-7.8376827e-08
-8.000087e-08
-8.3534414e-08
-8.6394844e-08
-8.897035e-08
-9.146656e-08
-9.3402654e-08
-9.5066972e-08
-9.6313743e-08
-9.7322903e-08
-9.8124582e-08
-9.8837421e-08
-9.9569079e-08
-1.0044015e-07
-1.0148221e-07
-1.0289996e-07
-1.0452646e-07
-1.067297e-07
-1.090162e-07
-1.1151858e-07
-1.1509513e-07
-1.1621608e-07
-1.2285008e-07
-1.1923267e-07
-1.3333105e-07
-1.1815635e-07
-1.4685571e-07
-1.1165403e-07
-1.6261688e-07
-1.0629278e-07
-1.6802816e-07
-1.1338425e-07
-1.5243879e-07
-1.3466794e-07
-1.5363718e-07
-1.9368128e-07
-6.2703019e-09
-4.6451343e-08
-6.5601964e-08
-4.6514484e-08
-8.6377825e-08
-3.3059066e-08
-8.8365706e-08
-3.8745377e-08
-8.2868868e-08
-5.2482086e-08
-7.653564e-08
-6.3896703e-08
-7.6216266e-08
-7.3106105e-08
-7.9211236e-08
-8.034696e-08
-8.3889272e-08
-8.6388653e-08
-8.8853951e-08
-9.1178311e-08
-9.3047299e-08
-9.4689306e-08
-9.5993056e-08
-9.7089224e-08
-9.8013233e-08
-9.8861976e-08
-9.972525e-08
-1.00702e-07
-1.018287e-07
-1.0325542e-07
-1.0487374e-07
-1.0692402e-07
-1.0918002e-07
-1.1131639e-07
-1.1498369e-07
-1.1549894e-07
-1.2255475e-07
-1.1785593e-07
-1.3300361e-07
-1.1589147e-07
-1.4654232e-07
-1.0881396e-07
-1.6205636e-07
-1.0324923e-07
-1.6660371e-07
-1.1060989e-07
-1.5015744e-07
-1.3193771e-07
-1.5089525e-07
-1.9082951e-07
-8.8500327e-09
-4.8925889e-08
-6.8082096e-08
-4.854489e-08
-8.906291e-08
-3.4170701e-08
-9.103222e-08
-3.9365414e-08
-8.5488161e-08
-5.3030475e-08
-7.8649161e-08
-6.4429314e-08
-7.7595052e-08
-7.3634708e-08
-8.0051601e-08
-8.0691033e-08
-8.4254012e-08
-8.6422268e-08
-8.8800953e-08
-9.0964953e-08
-9.2776242e-08
-9.4392226e-08
-9.57343e-08
-9.689787e-08
-9.7920066e-08
-9.8878955e-08
-9.9848835e-08
-1.0091015e-07
-1.021018e-07
-1.0353289e-07
-1.051324e-07
-1.0704625e-07
-1.0928768e-07
-1.1107697e-07
-1.1485017e-07
-1.1473683e-07
-1.2226039e-07
-1.1636543e-07
-1.3252764e-07
-1.1282476e-07
-1.4702604e-07
-1.0610686e-07
-1.6155719e-07
-1.0021685e-07
-1.6513914e-07
-1.0789202e-07
-1.4789573e-07
-1.2929e-07
-1.4822972e-07
-1.8807873e-07
-1.1355363e-08
-5.1341478e-08
-7.0508256e-08
-5.0561935e-08
-9.1692603e-08
-3.5155188e-08
-9.3787873e-08
-3.9883721e-08
-8.8212728e-08
-5.3438812e-08
-8.0887374e-08
-6.4911746e-08
-7.9027724e-08
-7.4146127e-08
-8.0906405e-08
-8.1037071e-08
-8.4633531e-08
-8.6495818e-08
-8.8803437e-08
-9.0822285e-08
-9.2569221e-08
-9.4171209e-08
-9.5530922e-08
-9.6744335e-08
-9.7842946e-08
-9.8888667e-08
-9.9942615e-08
-1.0106968e-07
-1.0230886e-07
-1.0373898e-07
-1.0531595e-07
-1.0710006e-07
-1.0933646e-07
-1.107946e-07
-1.1469105e-07
-1.1392226e-07
-1.2198592e-07
-1.1480096e-07
-1.3218984e-07
-1.1035321e-07
-1.4696475e-07
-1.0331352e-07
-1.6110623e-07
-9.7168385e-08
-1.6364573e-07
-1.0526733e-07
-1.4567076e-07
-1.2673526e-07
-1.4564922e-07
-1.85431e-07
-1.3785197e-08
-5.3701098e-08
-7.2883308e-08
-5.2570864e-08
-9.4046767e-08
-3.5793948e-08
-9.6774313e-08
-4.0408738e-08
-9.1050064e-08
-5.3649818e-08
-8.3287233e-08
-6.5347489e-08
-8.0511203e-08
-7.4637468e-08
-8.1782887e-08
-8.1388521e-08
-8.5031223e-08
-8.6607446e-08
-8.8856774e-08
-9.0742669e-08
-9.2438826e-08
-9.3996597e-08
-9.5373664e-08
-9.6623836e-08
-9.7779747e-08
-9.8891523e-08
-1.0000938e-07
-1.0118536e-07
-1.0245524e-07
-1.0387874e-07
-1.0543402e-07
-1.070915e-07
-1.0932956e-07
-1.1046739e-07
-1.1450947e-07
-1.1308313e-07
-1.2175144e-07
-1.1322764e-07
-1.3193794e-07
-1.0795877e-07
-1.4683123e-07
-1.0039951e-07
-1.6088721e-07
-9.4177983e-08
-1.6210212e-07
-1.0274473e-07
-1.4347699e-07
-1.2426697e-07
-1.4315489e-07
-1.8288518e-07
-1.6131446e-08
-5.5991364e-08
-7.518709e-08
-5.4572339e-08
-9.6213098e-08
-3.6426008e-08
-9.9688045e-08
-4.079594e-08
-9.3923291e-08
-5.3500038e-08
-8.5989941e-08
-6.5778491e-08
-8.2049176e-08
-7.5098827e-08
-8.2666109e-08
-8.1741072e-08
-8.5448622e-08
-8.6753305e-08
-8.8955087e-08
-9.0715631e-08
-9.2357298e-08
-9.3881243e-08
-9.5258946e-08
-9.6532371e-08
-9.7728585e-08
-9.8887959e-08
-1.000517e-07
-1.0126142e-07
-1.0254831e-07
-1.0395935e-07
-1.0549191e-07
-1.0702806e-07
-1.092725e-07
-1.1009703e-07
-1.14307e-07
-1.1220023e-07
-1.21494e-07
-1.1139391e-07
-1.3202012e-07
-1.0567951e-07
-1.4690718e-07
-9.7646705e-08
-1.6058035e-07
-9.1201057e-08
-1.6046264e-07
-1.003173e-07
-1.4131656e-07
-1.2189165e-07
-1.4075433e-07
-1.804438e-07
-1.83805e-08
-5.8184688e-08
-7.7362693e-08
-5.6534899e-08
-9.8297241e-08
-3.7205682e-08
-1.0254615e-07
-4.1019975e-08
-9.6664903e-08
-5.3002374e-08
-8.8921607e-08
-6.6238693e-08
-8.3642448e-08
-7.5516611e-08
-8.3560957e-08
-8.2092792e-08
-8.5887061e-08
-8.6929174e-08
-8.9092812e-08
-9.0734229e-08
-9.2322114e-08
-9.3811343e-08
-9.5182686e-08
-9.6466121e-08
-9.7687585e-08
-9.8878581e-08
-1.0007256e-07
-1.0130274e-07
-1.0259492e-07
-1.03988e-07
-1.0549604e-07
-1.0691493e-07
-1.0917134e-07
-1.0968755e-07
-1.1409017e-07
-1.1128456e-07
-1.2124501e-07
-1.094207e-07
-1.3232749e-07
-1.034717e-07
-1.4706076e-07
-9.4572843e-08
-1.6028237e-07
-8.8611562e-08
-1.5884407e-07
-9.8017809e-08
-1.3921813e-07
-1.1963556e-07
-1.3846236e-07
-1.781126e-07
-2.0528314e-08
-6.0273899e-08
-7.9398046e-08
-5.8442665e-08
-1.0033473e-07
-3.8142274e-08
-1.0535583e-07
-4.1025973e-08
-9.9470248e-08
-5.2931009e-08
-9.134704e-08
-6.659192e-08
-8.5192601e-08
-7.5867876e-08
-8.4465691e-08
-8.2441658e-08
-8.6346482e-08
-8.7130474e-08
-8.9264432e-08
-9.0791712e-08
-9.2327953e-08
-9.3781029e-08
-9.5137083e-08
-9.6421363e-08
-9.7655073e-08
-9.8864056e-08
-1.0007487e-07
-1.0131418e-07
-1.0260138e-07
-1.0397149e-07
-1.0545337e-07
-1.0675787e-07
-1.0903253e-07
-1.0924569e-07
-1.1387171e-07
-1.1035206e-07
-1.2101751e-07
-1.0765587e-07
-1.3256415e-07
-1.012665e-07
-1.4710125e-07
-9.1846389e-08
-1.5975768e-07
-8.6255359e-08
-1.5720598e-07
-9.5849838e-08
-1.3719264e-07
-1.1749424e-07
-1.3627923e-07
-1.7589157e-07
-2.2579823e-08
-6.2273118e-08
-8.1341234e-08
-6.0328643e-08
-1.0225361e-07
-3.9223817e-08
-1.0815614e-07
-4.0847064e-08
-1.0223782e-07
-5.2843537e-08
-9.35661e-08
-6.6511835e-08
-8.703645e-08
-7.6230774e-08
-8.5384959e-08
-8.2784558e-08
-8.6827986e-08
-8.735263e-08
-8.9464657e-08
-9.0881695e-08
-9.2368679e-08
-9.3783533e-08
-9.5117769e-08
-9.6394056e-08
-9.7629908e-08
-9.8845043e-08
-1.0006104e-07
-1.0129905e-07
-1.0257487e-07
-1.0391653e-07
-1.0537086e-07
-1.0656313e-07
-1.088616e-07
-1.0877606e-07
-1.13657e-07
-1.0941718e-07
-1.208634e-07
-1.0615487e-07
-1.3277792e-07
-9.8999838e-08
-1.4701894e-07
-8.9399709e-08
-1.5905428e-07
-8.4226756e-08
-1.5547726e-07
-9.3794711e-08
-1.3521759e-07
-1.1544387e-07
-1.3419636e-07
-1.7377704e-07
-2.4539172e-08
-6.419069e-08
-8.3210356e-08
-6.2169697e-08
-1.0407461e-07
-4.0532506e-08
-1.1090768e-07
-4.0504619e-08
-1.0482208e-07
-5.2692199e-08
-9.578704e-08
-6.6512257e-08
-8.8661839e-08
-7.648813e-08
-8.629685e-08
-8.3115133e-08
-8.7318352e-08
-8.7590051e-08
-8.9688751e-08
-9.0998277e-08
-9.2438516e-08
-9.3813075e-08
-9.512031e-08
-9.6381424e-08
-9.7610203e-08
-9.8822001e-08
-1.0003412e-07
-1.0126277e-07
-1.0251989e-07
-1.0382918e-07
-1.0525518e-07
-1.0633694e-07
-1.0866327e-07
-1.0827953e-07
-1.1342006e-07
-1.0836939e-07
-1.2086664e-07
-1.0474497e-07
-1.3284525e-07
-9.6857306e-08
-1.4707688e-07
-8.7121569e-08
-1.581916e-07
-8.2443723e-08
-1.5372401e-07
-9.1862189e-08
-1.3331332e-07
-1.1348514e-07
-1.3221402e-07
-1.7176934e-07
-2.6406592e-08
-6.6026266e-08
-8.5004698e-08
-6.3949532e-08
-1.0581952e-07
-4.196302e-08
-1.1327781e-07
-4.0194847e-08
-1.0733965e-07
-5.248435e-08
-9.786958e-08
-6.6055413e-08
-9.0624601e-08
-7.6815459e-08
-8.7222416e-08
-8.342965e-08
-8.7815856e-08
-8.7837389e-08
-8.9932003e-08
-9.1136101e-08
-9.2532192e-08
-9.3864637e-08
-9.5140718e-08
-9.6380818e-08
-9.759523e-08
-9.8795768e-08
-9.9996116e-08
-1.0120867e-07
-1.0244151e-07
-1.0371514e-07
-1.0511256e-07
-1.0608543e-07
-1.0844454e-07
-1.0777468e-07
-1.1318918e-07
-1.0734865e-07
-1.2089075e-07
-1.0330691e-07
-1.327925e-07
-9.513123e-08
-1.4701451e-07
-8.4940857e-08
-1.5714772e-07
-8.0795304e-08
-1.5207015e-07
-9.0087197e-08
-1.3151113e-07
-1.1163213e-07
-1.3033955e-07
-1.6987297e-07
-2.8178886e-08
-6.7773092e-08
-8.6713092e-08
-6.564792e-08
-1.0747516e-07
-4.3487246e-08
-1.1548538e-07
-4.0145899e-08
-1.096672e-07
-5.2188716e-08
-9.9861271e-08
-6.5864778e-08
-9.2136224e-08
-7.7017973e-08
-8.817243e-08
-8.3726523e-08
-8.8317995e-08
-8.8090342e-08
-9.0190038e-08
-9.1290385e-08
-9.2644983e-08
-9.393382e-08
-9.5175547e-08
-9.638992e-08
-9.7584099e-08
-9.8766925e-08
-9.9949151e-08
-1.0114018e-07
-1.0234466e-07
-1.0357966e-07
-1.049486e-07
-1.0581484e-07
-1.0821248e-07
-1.0726001e-07
-1.1292046e-07
-1.0634795e-07
-1.2105737e-07
-1.0180915e-07
-1.3254995e-07
-9.3323434e-08
-1.4695322e-07
-8.3116454e-08
-1.5605406e-07
-7.9304669e-08
-1.505232e-07
-8.8460818e-08
-1.2982933e-07
-1.0989747e-07
-1.2858068e-07
-1.68093e-07
-2.9852188e-08
-6.9424785e-08
-8.8326502e-08
-6.7247977e-08
-1.0903207e-07
-4.5004009e-08
-1.1745583e-07
-4.0486551e-08
-1.1195603e-07
-5.1576726e-08
-1.0181301e-07
-6.5726218e-08
-9.354264e-08
-7.7178436e-08
-8.9065575e-08
-8.3984701e-08
-8.8819072e-08
-8.834572e-08
-9.0459273e-08
-9.1457002e-08
-9.2772743e-08
-9.4016806e-08
-9.5221801e-08
-9.6406773e-08
-9.7576043e-08
-9.8736019e-08
-9.9895087e-08
-1.0106025e-07
-1.0223313e-07
-1.034273e-07
-1.0476859e-07
-1.0553098e-07
-1.0797199e-07
-1.0673748e-07
-1.1267101e-07
-1.0549575e-07
-1.2088138e-07
-1.0053556e-07
-1.3234545e-07
-9.1706002e-08
-1.4659842e-07
-8.1518303e-08
-1.5489836e-07
-7.7929774e-08
-1.4906941e-07
-8.6965069e-08
-1.2827e-07
-1.0828481e-07
-1.2694066e-07
-1.6643166e-07
-3.1423986e-08
-7.097771e-08
-8.9841696e-08
-6.8739073e-08
-1.1047854e-07
-4.6405246e-08
-1.1895941e-07
-4.1404011e-08
-1.1424322e-07
-5.1174459e-08
-1.0352959e-07
-6.5421045e-08
-9.4815363e-08
-7.7221432e-08
-9.0006894e-08
-8.4238808e-08
-8.9321255e-08
-8.8601657e-08
-9.0736783e-08
-9.1632456e-08
-9.2911881e-08
-9.4110321e-08
-9.5276916e-08
-9.6429711e-08
-9.7570443e-08
-9.8703554e-08
-9.9835531e-08
-1.0097148e-07
-1.0211039e-07
-1.0326197e-07
-1.0457656e-07
-1.0523882e-07
-1.0772985e-07
-1.0622979e-07
-1.1243149e-07
-1.0467313e-07
-1.2063039e-07
-9.9353019e-08
-1.3219561e-07
-9.0155899e-08
-1.4605667e-07
-8.0111093e-08
-1.5374045e-07
-7.6661117e-08
-1.4770504e-07
-8.5580619e-08
-1.2682501e-07
-1.0678966e-07
-1.2541724e-07
-1.6488712e-07
-3.2893232e-08
-7.24303e-08
-9.1257742e-08
-7.0125851e-08
-1.1181676e-07
-4.7700285e-08
-1.2025986e-07
-4.2424988e-08
-1.1588718e-07
-5.1099558e-08
-1.052438e-07
-6.5325359e-08
-9.6034033e-08
-7.7042019e-08
-9.1088074e-08
-8.4516984e-08
-8.9823426e-08
-8.8855419e-08
-9.1020077e-08
-9.1813784e-08
-9.3059269e-08
-9.4211566e-08
-9.5338723e-08
-9.6457332e-08
-9.7566793e-08
-9.8669997e-08
-9.9771856e-08
-1.0087606e-07
-1.019793e-07
-1.0308698e-07
-1.0437585e-07
-1.0494079e-07
-1.0747726e-07
-1.0570206e-07
-1.1225424e-07
-1.0386097e-07
-1.2036547e-07
-9.8286892e-08
-1.3210033e-07
-8.8662564e-08
-1.4535239e-07
-7.8843695e-08
-1.5260819e-07
-7.54817e-08
-1.4642907e-07
-8.4293172e-08
-1.2548396e-07
-1.054042e-07
-1.2400483e-07
-1.6345464e-07
-3.4259769e-08
-7.3781717e-08
-9.2574167e-08
-7.1413616e-08
-1.1305583e-07
-4.8902135e-08
-1.214312e-07
-4.3441284e-08
-1.171996e-07
-5.1358511e-08
-1.0671559e-07
-6.5370958e-08
-9.7304577e-08
-7.6956296e-08
-9.1965014e-08
-8.4775661e-08
-9.0315522e-08
-8.9101239e-08
-9.1303147e-08
-9.1997788e-08
-9.3212221e-08
-9.431818e-08
-9.5405406e-08
-9.6488473e-08
-9.756468e-08
-9.8635698e-08
-9.9705234e-08
-1.0077585e-07
-1.0184228e-07
-1.0290507e-07
-1.0416916e-07
-1.0463993e-07
-1.0722196e-07
-1.0520249e-07
-1.1211458e-07
-1.0302814e-07
-1.2007371e-07
-9.7274814e-08
-1.3189255e-07
-8.7302669e-08
-1.4461885e-07
-7.7735707e-08
-1.5153659e-07
-7.4385395e-08
-1.4523805e-07
-8.3095168e-08
-1.2423852e-07
-1.0412079e-07
-1.2269698e-07
-1.6212839e-07
-3.5524667e-08
-7.5032538e-08
-9.3791069e-08
-7.2606215e-08
-1.1420533e-07
-5.0022295e-08
-1.2250887e-07
-4.4429231e-08
-1.1832837e-07
-5.1815433e-08
-1.081223e-07
-6.5447368e-08
-9.8494131e-08
-7.6958687e-08
-9.2693153e-08
-8.5000261e-08
-9.0796045e-08
-8.9337019e-08
-9.1584203e-08
-9.2182327e-08
-9.3368679e-08
-9.4428242e-08
-9.547548e-08
-9.6522192e-08
-9.7563791e-08
-9.8601028e-08
-9.9636675e-08
-1.0067245e-07
-1.0170133e-07
-1.0271846e-07
-1.0395857e-07
-1.0433813e-07
-1.0696919e-07
-1.0473397e-07
-1.1184142e-07
-1.0229129e-07
-1.1977228e-07
-9.6286815e-08
-1.3163019e-07
-8.611078e-08
-1.4386618e-07
-7.6750224e-08
-1.5053619e-07
-7.3367261e-08
-1.4412885e-07
-8.1981417e-08
-1.2308284e-07
-1.0293307e-07
-1.2148778e-07
-1.6090312e-07
-3.6691177e-08
-7.6185792e-08
-9.4911628e-08
-7.3707591e-08
-1.152722e-07
-5.1067276e-08
-1.235073e-07
-4.5367996e-08
-1.1931909e-07
-5.2394165e-08
-1.0946853e-07
-6.5453685e-08
-9.9499057e-08
-7.7119533e-08
-9.3403071e-08
-8.5205209e-08
-9.1264512e-08
-8.9562871e-08
-9.1862682e-08
-9.2365999e-08
-9.3526968e-08
-9.4540235e-08
-9.554776e-08
-9.6557737e-08
-9.7563896e-08
-9.8566323e-08
-9.9567056e-08
-1.0056719e-07
-1.0155821e-07
-1.0252914e-07
-1.0374582e-07
-1.0403359e-07
-1.0669267e-07
-1.0418875e-07
-1.1162567e-07
-1.0160936e-07
-1.1945713e-07
-9.5319179e-08
-1.3133813e-07
-8.5091083e-08
-1.4310786e-07
-7.5851754e-08
-1.4960424e-07
-7.2421427e-08
-1.4309782e-07
-8.0947532e-08
-1.2201248e-07
-1.0183596e-07
-1.2037203e-07
-1.597733e-07
-3.7764625e-08
-7.7247497e-08
-9.5942921e-08
-7.472416e-08
-1.1625968e-07
-5.203825e-08
-1.2443023e-07
-4.6244035e-08
-1.2019539e-07
-5.3032752e-08
-1.1068855e-07
-6.5583469e-08
-1.0037727e-07
-7.728091e-08
-9.4093544e-08
-8.5362428e-08
-9.1747322e-08
-8.978483e-08
-9.2137033e-08
-9.2547678e-08
-9.3685808e-08
-9.4652985e-08
-9.5621321e-08
-9.6594522e-08
-9.7564826e-08
-9.8531877e-08
-9.9497129e-08
-1.0046125e-07
-1.0141449e-07
-1.0233911e-07
-1.0353351e-07
-1.0373055e-07
-1.0641385e-07
-1.0368016e-07
-1.1137339e-07
-1.0095782e-07
-1.1917725e-07
-9.4443218e-08
-1.3095091e-07
-8.4189993e-08
-1.4235831e-07
-7.5016896e-08
-1.4873312e-07
-7.1541331e-08
-1.4214058e-07
-7.9989789e-08
-1.2102343e-07
-1.0082559e-07
-1.1934577e-07
-1.5873534e-07
-3.8750927e-08
-7.822434e-08
-9.6893177e-08
-7.566218e-08
-1.1717015e-07
-5.2935391e-08
-1.2528038e-07
-4.7057531e-08
-1.2099068e-07
-5.3695464e-08
-1.1169629e-07
-6.5747525e-08
-1.0125537e-07
-7.7477741e-08
-9.4806624e-08
-8.5528736e-08
-9.2184385e-08
-8.9991577e-08
-9.2407241e-08
-9.272688e-08
-9.3844283e-08
-9.476561e-08
-9.5695444e-08
-9.663209e-08
-9.7566477e-08
-9.8497961e-08
-9.942755e-08
-1.0035565e-07
-1.012715e-07
-1.0215009e-07
-1.0332371e-07
-1.0343262e-07
-1.0614742e-07
-1.0323696e-07
-1.110855e-07
-1.0033853e-07
-1.1891796e-07
-9.3595057e-08
-1.3052582e-07
-8.3392521e-08
-1.4163679e-07
-7.4237303e-08
-1.4791718e-07
-7.0722481e-08
-1.4125201e-07
-7.910541e-08
-1.20112e-07
-9.9899002e-08
-1.1840572e-07
-1.5778599e-07
-3.9654474e-08
-7.9121494e-08
-9.7768373e-08
-7.6527549e-08
-1.1800513e-07
-5.3760606e-08
-1.2606155e-07
-4.7814643e-08
-1.2172499e-07
-5.4349819e-08
-1.125278e-07
-6.5962855e-08
-1.021109e-07
-7.7711454e-08
-9.5530912e-08
-8.558007e-08
-9.2650737e-08
-9.0206346e-08
-9.2673253e-08
-9.2903318e-08
-9.4001725e-08
-9.4877433e-08
-9.5769567e-08
-9.6670083e-08
-9.7568758e-08
-9.8464811e-08
-9.9358879e-08
-1.0025123e-07
-1.0113038e-07
-1.0196348e-07
-1.0311776e-07
-1.0314123e-07
-1.0589122e-07
-1.028172e-07
-1.1079434e-07
-9.9759916e-08
-1.1869502e-07
-9.2783102e-08
-1.300659e-07
-8.26642e-08
-1.4094794e-07
-7.3510556e-08
-1.4715378e-07
-6.9963005e-08
-1.4042773e-07
-7.8292498e-08
-1.1927473e-07
-9.9053512e-08
-1.1754888e-07
-1.5692234e-07
-4.0476884e-08
-7.9940649e-08
-9.8569196e-08
-7.7323212e-08
-1.1876759e-07
-5.4520306e-08
-1.2677903e-07
-4.8521294e-08
-1.2240559e-07
-5.4979341e-08
-1.1324657e-07
-6.6254662e-08
-1.028965e-07
-7.7924506e-08
-9.6178809e-08
-8.5760058e-08
-9.3058711e-08
-9.0409707e-08
-9.2933611e-08
-9.3076494e-08
-9.4157548e-08
-9.4987889e-08
-9.5843233e-08
-9.670821e-08
-9.7571617e-08
-9.8432638e-08
-9.9291598e-08
-1.0014873e-07
-1.0099207e-07
-1.0178041e-07
-1.0291643e-07
-1.0285684e-07
-1.0564387e-07
-1.0241332e-07
-1.1051496e-07
-9.9223396e-08
-1.1846536e-07
-9.2007368e-08
-1.2959569e-07
-8.2003373e-08
-1.4029903e-07
-7.2837214e-08
-1.4644141e-07
-6.9262557e-08
-1.3966422e-07
-7.7549873e-08
-1.1850829e-07
-9.8286633e-08
-1.1677253e-07
-1.5614185e-07
-4.1217481e-08
-8.0681351e-08
-9.9294413e-08
-7.8051144e-08
-1.1945998e-07
-5.5221366e-08
-1.2743727e-07
-4.9182204e-08
-1.2303528e-07
-5.5580782e-08
-1.1388692e-07
-6.6589449e-08
-1.0365049e-07
-7.8106989e-08
-9.672325e-08
-8.5875719e-08
-9.3542523e-08
-9.0634134e-08
-9.319154e-08
-9.3246247e-08
-9.4311289e-08
-9.509646e-08
-9.5916024e-08
-9.674621e-08
-9.7575e-08
-9.8401618e-08
-9.9226115e-08
-1.0004876e-07
-1.0085735e-07
-1.0160186e-07
-1.0272035e-07
-1.0257999e-07
-1.0540488e-07
-1.0202244e-07
-1.1024564e-07
-9.8711894e-08
-1.1816612e-07
-9.1293959e-08
-1.2915041e-07
-8.1419893e-08
-1.3969648e-07
-7.2218173e-08
-1.4577768e-07
-6.8621161e-08
-1.3895763e-07
-7.6876764e-08
-1.1780941e-07
-9.7596554e-08
-1.1607449e-07
-1.5544278e-07
-4.1874096e-08
-8.1342191e-08
-9.994235e-08
-7.8713266e-08
-1.2008386e-07
-5.5870371e-08
-1.2803911e-07
-4.9802147e-08
-1.2361543e-07
-5.6154489e-08
-1.1447012e-07
-6.6961981e-08
-1.0436572e-07
-7.8248987e-08
-9.7233102e-08
-8.608398e-08
-9.3931168e-08
-9.084442e-08
-9.3442209e-08
-9.3411135e-08
-9.4461401e-08
-9.5202486e-08
-9.5987523e-08
-9.6783829e-08
-9.7578843e-08
-9.837189e-08
-9.9162774e-08
-9.9951851e-08
-1.0072691e-07
-1.0142876e-07
-1.0253034e-07
-1.0231286e-07
-1.0517433e-07
-1.0163751e-07
-1.0996203e-07
-9.8184907e-08
-1.1788075e-07
-9.0659443e-08
-1.287153e-07
-8.0896313e-08
-1.3913494e-07
-7.1651592e-08
-1.4515769e-07
-6.8038533e-08
-1.38303e-07
-7.6272802e-08
-1.1717473e-07
-9.6982345e-08
-1.1545343e-07
-1.5482453e-07
-4.2443435e-08
-8.1921245e-08
-1.00511e-07
-7.9312069e-08
-1.2063988e-07
-5.647451e-08
-1.2858622e-07
-5.0387243e-08
-1.2414495e-07
-5.6695946e-08
-1.1498447e-07
-6.7346376e-08
-1.050635e-07
-7.842272e-08
-9.7696002e-08
-8.629603e-08
-9.4287104e-08
-9.1042914e-08
-9.3684383e-08
-9.3570528e-08
-9.4607321e-08
-9.5305447e-08
-9.6057338e-08
-9.6820831e-08
-9.7583069e-08
-9.8343553e-08
-9.9101856e-08
-9.9858457e-08
-1.0060135e-07
-1.0126187e-07
-1.0234647e-07
-1.0205516e-07
-1.0495827e-07
-1.0127147e-07
-1.0969793e-07
-9.7703792e-08
-1.1757934e-07
-9.006814e-08
-1.2826793e-07
-8.0413606e-08
-1.3860341e-07
-7.1134013e-08
-1.445738e-07
-6.7514072e-08
-1.3769384e-07
-7.5738148e-08
-1.1660056e-07
-9.6444128e-08
-1.1490915e-07
-1.5428823e-07
-4.292112e-08
-8.2416126e-08
-1.0099812e-07
-7.9851112e-08
-1.2112789e-07
-5.7042519e-08
-1.2907954e-07
-5.0946464e-08
-1.2462399e-07
-5.7209707e-08
-1.1543553e-07
-6.773089e-08
-1.0568137e-07
-7.8657199e-08
-9.8143812e-08
-8.6509848e-08
-9.4627145e-08
-9.1232707e-08
-9.3917507e-08
-9.3724098e-08
-9.474837e-08
-9.5404865e-08
-9.6125098e-08
-9.6856981e-08
-9.758758e-08
-9.8316666e-08
-9.9043576e-08
-9.9768941e-08
-1.0048116e-07
-1.0110204e-07
-1.0216996e-07
-1.0181036e-07
-1.0475459e-07
-1.0092797e-07
-1.0945392e-07
-9.7274637e-08
-1.172683e-07
-8.9519122e-08
-1.2780672e-07
-7.9960291e-08
-1.3808817e-07
-7.0661612e-08
-1.4401563e-07
-6.7047238e-08
-1.3712183e-07
-7.5273662e-08
-1.1608263e-07
-9.5983233e-08
-1.1444286e-07
-1.5383721e-07
-4.3301532e-08
-8.2824003e-08
-1.0140149e-07
-8.0335714e-08
-1.2154684e-07
-5.7585283e-08
-1.2951902e-07
-5.149238e-08
-1.2505425e-07
-5.7710046e-08
-1.1584136e-07
-6.813279e-08
-1.0621662e-07
-7.8885715e-08
-9.8594987e-08
-8.6734307e-08
-9.4954781e-08
-9.1414561e-08
-9.414046e-08
-9.3871558e-08
-9.488383e-08
-9.5500293e-08
-9.6190434e-08
-9.6891976e-08
-9.7592254e-08
-9.8291244e-08
-9.8988082e-08
-9.9683569e-08
-1.0036672e-07
-1.0094999e-07
-1.0200231e-07
-1.0158574e-07
-1.045613e-07
-1.0059077e-07
-1.0919421e-07
-9.6846668e-08
-1.16993e-07
-8.9048602e-08
-1.2734477e-07
-7.9535267e-08
-1.3757589e-07
-7.0232333e-08
-1.4347026e-07
-6.6638144e-08
-1.3657638e-07
-7.4880972e-08
-1.1561584e-07
-9.5602218e-08
-1.1405737e-07
-1.5347758e-07
-4.3577701e-08
-8.3141482e-08
-1.0171983e-07
-8.0773616e-08
-1.2189506e-07
-5.8116386e-08
-1.2990274e-07
-5.2041212e-08
-1.2543678e-07
-5.82159e-08
-1.1621471e-07
-6.8569734e-08
-1.0671058e-07
-7.9146544e-08
-9.8982064e-08
-8.6932887e-08
-9.5257211e-08
-9.1587627e-08
-9.4352277e-08
-9.4012813e-08
-9.5013032e-08
-9.5591325e-08
-9.6253003e-08
-9.6925614e-08
-9.7596964e-08
-9.8267268e-08
-9.8935453e-08
-9.9602495e-08
-1.0025816e-07
-1.0080604e-07
-1.018426e-07
-1.0137467e-07
-1.043749e-07
-1.0026803e-07
-1.0892523e-07
-9.6436779e-08
-1.1672854e-07
-8.8648318e-08
-1.2688339e-07
-7.9143422e-08
-1.3705416e-07
-6.9847503e-08
-1.4292216e-07
-6.6287904e-08
-1.3604384e-07
-7.4562223e-08
-1.1519354e-07
-9.530451e-08
-1.1375705e-07
-1.5321847e-07
-4.3741473e-08
-8.3364494e-08
-1.0195331e-07
-8.1176789e-08
-1.2217089e-07
-5.8652561e-08
-1.3022633e-07
-5.2612938e-08
-1.2576953e-07
-5.8746567e-08
-1.1655451e-07
-6.903616e-08
-1.0714178e-07
-7.9421862e-08
-9.9323076e-08
-8.7122578e-08
-9.5537719e-08
-9.1753672e-08
-9.4551104e-08
-9.4147743e-08
-9.5135329e-08
-9.5677604e-08
-9.6312472e-08
-9.6957645e-08
-9.7601573e-08
-9.8244692e-08
-9.888572e-08
-9.9525785e-08
-1.001555e-07
-1.006703e-07
-1.0169103e-07
-1.0118144e-07
-1.04186e-07
-9.9970941e-08
-1.0866566e-07
-9.6075439e-08
-1.1643884e-07
-8.8294714e-08
-1.2641102e-07
-7.8791369e-08
-1.3650918e-07
-6.9511781e-08
-1.423524e-07
-6.5998335e-08
-1.3550663e-07
-7.4318802e-08
-1.1480665e-07
-9.5093279e-08
-1.1354698e-07
-1.5307156e-07
-4.3782752e-08
-8.3486571e-08
-1.0210629e-07
-8.1559932e-08
-1.2237494e-07
-5.9213595e-08
-1.3048318e-07
-5.3230894e-08
-1.2604572e-07
-5.9320023e-08
-1.1684799e-07
-6.9522011e-08
-1.0747414e-07
-7.9671476e-08
-9.9669437e-08
-8.734015e-08
-9.5804085e-08
-9.1915672e-08
-9.473587e-08
-9.4276879e-08