/*--------------------------------*- C++ -*----------------------------------*\
  =========                 |
  \\      /  F ield         | OpenFOAM: The Open Source CFD Toolbox
   \\    /   O peration     | Website:  https://openfoam.org
    \\  /    A nd           | Version:  11
     \\/     M anipulation  |
\*---------------------------------------------------------------------------*/
FoamFile
{
    format      ascii;
    class       volScalarField;
    location    "70/Air";
    object      p_rgh;
}
// * * * * * * * * * * * * * * * * * * * * * * * * * * * * * * * * * * * * * //

dimensions      [1 -1 -2 0 0 0 0];

internalField   nonuniform List<scalar> 
124340
(
-2.216387e-12
-1.1275612e-08
-1.8155913e-08
-1.6048957e-08
-2.3841457e-08
-1.3364723e-08
-2.4712895e-08
-1.421114e-08
-2.4869274e-08
-2.0142166e-08
-2.8585426e-08
-2.9653648e-08
-3.6467972e-08
-4.0935152e-08
-4.6723908e-08
-5.248767e-08
-5.7525435e-08
-6.1907512e-08
-6.4996076e-08
-6.7054386e-08
-6.7985398e-08
-6.814187e-08
-6.7567714e-08
-6.6576749e-08
-6.5275291e-08
-6.3847017e-08
-6.2447637e-08
-6.1260768e-08
-6.0383611e-08
-6.0128824e-08
-6.052013e-08
-6.1952708e-08
-6.4322358e-08
-6.7969347e-08
-7.234985e-08
-7.7705817e-08
-8.3391304e-08
-8.7957007e-08
-9.4777192e-08
-9.6229596e-08
-1.0490544e-07
-9.9513753e-08
-1.1130136e-07
-1.0033515e-07
-1.117742e-07
-1.0285508e-07
-1.1066166e-07
-1.090181e-07
-1.159986e-07
-1.272482e-07
-6.1429307e-10
-1.2549353e-08
-1.924015e-08
-1.6670338e-08
-2.4686329e-08
-1.4235635e-08
-2.6113871e-08
-1.5225815e-08
-2.6263537e-08
-2.2145157e-08
-2.9750976e-08
-3.1259587e-08
-3.6880834e-08
-4.0647569e-08
-4.5236554e-08
-5.0600641e-08
-5.5441274e-08
-6.0157578e-08
-6.3569304e-08
-6.60001e-08
-6.7233402e-08
-6.7634817e-08
-6.7228777e-08
-6.6373411e-08
-6.5181514e-08
-6.3851449e-08
-6.2556391e-08
-6.1493114e-08
-6.0766961e-08
-6.0729014e-08
-6.136927e-08
-6.3150933e-08
-6.5810735e-08
-6.9764409e-08
-7.3913623e-08
-7.8997331e-08
-8.3791241e-08
-8.7680283e-08
-9.4027132e-08
-9.5042257e-08
-1.0409841e-07
-9.8113757e-08
-1.1119403e-07
-9.9231542e-08
-1.1154815e-07
-1.0190473e-07
-1.1019327e-07
-1.0814928e-07
-1.1504007e-07
-1.2688826e-07
2.3234927e-09
-1.2004588e-08
-1.9766903e-08
-1.7155333e-08
-2.6202411e-08
-1.5366328e-08
-2.7892657e-08
-1.7773242e-08
-2.8218456e-08
-2.4578468e-08
-3.1917775e-08
-3.2984699e-08
-3.7829998e-08
-4.0488255e-08
-4.3919054e-08
-4.8500205e-08
-5.2941439e-08
-5.7783972e-08
-6.1434049e-08
-6.4267263e-08
-6.5856911e-08
-6.6607125e-08
-6.6502258e-08
-6.5923652e-08
-6.4982786e-08
-6.3892181e-08
-6.2840168e-08
-6.2049663e-08
-6.1606851e-08
-6.1908417e-08
-6.2879398e-08
-6.5035353e-08
-6.7902691e-08
-7.1972981e-08
-7.5828994e-08
-8.0220356e-08
-8.4056644e-08
-8.7080204e-08
-9.2712825e-08
-9.3557733e-08
-1.0196866e-07
-9.6666173e-08
-1.0944317e-07
-9.7706468e-08
-1.1071607e-07
-1.0072619e-07
-1.1002658e-07
-1.0786218e-07
-1.1575605e-07
-1.3002565e-07
4.1873387e-09
-1.2231376e-08
-2.0658431e-08
-1.8138593e-08
-2.8050053e-08
-1.6372027e-08
-2.9741261e-08
-1.9867741e-08
-3.0188429e-08
-2.6676138e-08
-3.3845258e-08
-3.4403065e-08
-3.8719765e-08
-4.0566283e-08
-4.3283753e-08
-4.718455e-08
-5.1172517e-08
-5.5851032e-08
-5.9523095e-08
-6.2542061e-08
-6.4376852e-08
-6.5465659e-08
-6.5673613e-08
-6.5400038e-08
-6.474915e-08
-6.3947726e-08
-6.318441e-08
-6.26893e-08
-6.2549858e-08
-6.3162339e-08
-6.4417754e-08
-6.6769944e-08
-6.9661904e-08
-7.3638046e-08
-7.7111679e-08
-8.0896955e-08
-8.4113917e-08
-8.642705e-08
-9.1561082e-08
-9.2068333e-08
-1.0019527e-07
-9.5394327e-08
-1.0729924e-07
-9.6338919e-08
-1.0978166e-07
-9.9352816e-08
-1.0934687e-07
-1.0717198e-07
-1.1568597e-07
-1.320378e-07
4.2609317e-09
-1.3198138e-08
-2.1807983e-08
-1.9286074e-08
-2.9535102e-08
-1.7699833e-08
-3.127378e-08
-2.1574218e-08
-3.1810488e-08
-2.8208818e-08
-3.5229004e-08
-3.5357181e-08
-3.9412241e-08
-4.0818586e-08
-4.3279045e-08
-4.666939e-08
-5.0259431e-08
-5.4630229e-08
-5.8131965e-08
-6.1174404e-08
-6.3153707e-08
-6.4437938e-08
-6.4895478e-08
-6.4891997e-08
-6.4521074e-08
-6.4001784e-08
-6.3523049e-08
-6.3295498e-08
-6.3411923e-08
-6.4240789e-08
-6.5643563e-08
-6.8037737e-08
-7.086778e-08
-7.45877e-08
-7.7739205e-08
-8.1045005e-08
-8.3993002e-08
-8.5864385e-08
-9.0733538e-08
-9.0842747e-08
-9.8811627e-08
-9.4035077e-08
-1.0566292e-07
-9.4887341e-08
-1.0876625e-07
-9.7976284e-08
-1.0841591e-07
-1.061408e-07
-1.147854e-07
-1.3215876e-07
3.0273862e-09
-1.4785965e-08
-2.328453e-08
-2.0627819e-08
-3.0893313e-08
-1.9120633e-08
-3.2673515e-08
-2.2968158e-08
-3.3120608e-08
-2.9293605e-08
-3.621449e-08
-3.5981063e-08
-3.9981653e-08
-4.1185711e-08
-4.3674708e-08
-4.6699285e-08
-4.9973063e-08
-5.3953424e-08
-5.7226339e-08
-6.0148534e-08
-6.2156943e-08
-6.3553085e-08
-6.4201474e-08
-6.4425288e-08
-6.4306363e-08
-6.4046531e-08
-6.3821859e-08
-6.3832018e-08
-6.4156053e-08
-6.5124813e-08
-6.659202e-08
-6.8918966e-08
-7.1586257e-08
-7.500401e-08
-7.7910979e-08
-8.0855922e-08
-8.378994e-08
-8.5367052e-08
-9.0143769e-08
-8.9848965e-08
-9.7760387e-08
-9.276884e-08
-1.0429551e-07
-9.3313547e-08
-1.0750977e-07
-9.6666011e-08
-1.0721914e-07
-1.0469284e-07
-1.1317136e-07
-1.3088255e-07
1.1269817e-09
-1.6726688e-08
-2.5011962e-08
-2.21548e-08
-3.2329474e-08
-2.0534128e-08
-3.401414e-08
-2.4169586e-08
-3.4265137e-08
-3.013115e-08
-3.7011176e-08
-3.6459654e-08
-4.0522943e-08
-4.162627e-08
-4.4261369e-08
-4.7006448e-08
-5.0045633e-08
-5.3636195e-08
-5.6640784e-08
-5.938549e-08
-6.1356979e-08
-6.2803476e-08
-6.3595156e-08
-6.4006892e-08
-6.4109431e-08
-6.4082323e-08
-6.4085019e-08
-6.4296996e-08
-6.4787567e-08
-6.584257e-08
-6.7323385e-08
-6.9533356e-08
-7.1995984e-08
-7.5108403e-08
-7.7846569e-08
-8.0495913e-08
-8.3486054e-08
-8.4869016e-08
-8.9662202e-08
-8.8956266e-08
-9.688687e-08
-9.1495495e-08
-1.0314485e-07
-9.1771053e-08
-1.0640748e-07
-9.4936005e-08
-1.0571547e-07
-1.0291023e-07
-1.1113592e-07
-1.288276e-07
-1.0284971e-09
-1.8796453e-08
-2.6882016e-08
-2.3791016e-08
-3.3894821e-08
-2.1933572e-08
-3.5382982e-08
-2.5276339e-08
-3.5367261e-08
-3.0874124e-08
-3.7771357e-08
-3.6919869e-08
-4.109859e-08
-4.2116938e-08
-4.49159e-08
-4.7424093e-08
-5.029232e-08
-5.3518963e-08
-5.6259311e-08
-5.8817721e-08
-6.0716028e-08
-6.217301e-08
-6.3071935e-08
-6.363783e-08
-6.3931903e-08
-6.4109615e-08
-6.4311653e-08
-6.4694362e-08
-6.5319293e-08
-6.642613e-08
-6.789455e-08
-6.9968048e-08
-7.2239889e-08
-7.5055545e-08
-7.7680036e-08
-8.0073349e-08
-8.3160006e-08
-8.4331766e-08
-8.9198235e-08
-8.8065617e-08
-9.6091376e-08
-9.0210981e-08
-1.0209331e-07
-9.0204786e-08
-1.0530636e-07
-9.2895573e-08
-1.0400298e-07
-1.0092411e-07
-1.089387e-07
-1.2654648e-07
-3.2268325e-09
-2.0881834e-08
-2.881434e-08
-2.5479785e-08
-3.5556944e-08
-2.3329626e-08
-3.6814057e-08
-2.6368838e-08
-3.6503692e-08
-3.1607574e-08
-3.857782e-08
-3.7424125e-08
-4.1736008e-08
-4.2644611e-08
-4.5581186e-08
-4.7870706e-08
-5.0609706e-08
-5.3502938e-08
-5.5990999e-08
-5.8409467e-08
-6.0203773e-08
-6.1646534e-08
-6.2625731e-08
-6.3317183e-08
-6.3774321e-08
-6.4129016e-08
-6.4502827e-08
-6.502902e-08
-6.5762843e-08
-6.6899467e-08
-6.8342112e-08
-7.0284609e-08
-7.2396476e-08
-7.4932905e-08
-7.7476876e-08
-7.9630913e-08
-8.2813427e-08
-8.3739036e-08
-8.8708371e-08
-8.7125047e-08
-9.5318703e-08
-8.8834077e-08
-1.0104987e-07
-8.8586731e-08
-1.0400531e-07
-9.0750864e-08
-1.0219592e-07
-9.8847734e-08
-1.0671323e-07
-1.2420088e-07
-5.3828721e-09
-2.2927559e-08
-3.0755824e-08
-2.7180327e-08
-3.7288327e-08
-2.4708657e-08
-3.832412e-08
-2.7460527e-08
-3.7708477e-08
-3.2366268e-08
-3.9463246e-08
-3.7990708e-08
-4.243904e-08
-4.3199138e-08
-4.6236197e-08
-4.8312642e-08
-5.0946263e-08
-5.3546234e-08
-5.5858806e-08
-5.8056041e-08
-5.9787345e-08
-6.1210635e-08
-6.2250117e-08
-6.304278e-08
-6.3636387e-08
-6.414116e-08
-6.4660425e-08
-6.5306041e-08
-6.612825e-08
-6.7281646e-08
-6.8693718e-08
-7.0518609e-08
-7.2497055e-08
-7.4781717e-08
-7.7259435e-08
-7.917582e-08
-8.2432733e-08
-8.3080977e-08
-8.8180686e-08
-8.6125333e-08
-9.4550592e-08
-8.7371428e-08
-1.0002766e-07
-8.6888731e-08
-1.0270688e-07
-8.8772399e-08
-1.003931e-07
-9.6763309e-08
-1.0453127e-07
-1.2190638e-07
-7.461956e-09
-2.4911832e-08
-3.2674928e-08
-2.8864912e-08
-3.9056762e-08
-2.6073543e-08
-3.9906091e-08
-2.8557826e-08
-3.8997573e-08
-3.3168506e-08
-4.0435567e-08
-3.8615773e-08
-4.3199799e-08
-4.3771177e-08
-4.6874738e-08
-4.8738275e-08
-5.1277879e-08
-5.3617824e-08
-5.577233e-08
-5.7800529e-08
-5.9458126e-08
-6.0855519e-08
-6.1938675e-08
-6.281139e-08
-6.351703e-08
-6.4146589e-08
-6.478676e-08
-6.553039e-08
-6.6423543e-08
-6.7585265e-08
-6.896416e-08
-7.068565e-08
-7.2557577e-08
-7.4614963e-08
-7.7033887e-08
-7.8709636e-08
-8.2023514e-08
-8.2362823e-08
-8.7619606e-08
-8.5056168e-08
-9.3792111e-08
-8.5955107e-08
-9.889914e-08
-8.5070055e-08
-1.0141014e-07
-8.6827664e-08
-9.8612219e-08
-9.4713407e-08
-1.0242141e-07
-1.1970329e-07
-9.4576681e-09
-2.682895e-08
-3.4554195e-08
-3.0514639e-08
-4.0847296e-08
-2.7423517e-08
-4.1558041e-08
-2.9646848e-08
-4.0372207e-08
-3.4001055e-08
-4.1487424e-08
-3.9287467e-08
-4.4007506e-08
-4.4352196e-08
-4.7496999e-08
-4.9146175e-08
-5.1600322e-08
-5.3709636e-08
-5.5730828e-08
-5.7617194e-08
-5.9201676e-08
-6.0571271e-08
-6.1684298e-08
-6.2618901e-08
-6.3414632e-08
-6.4145804e-08
-6.4884435e-08
-6.5706929e-08
-6.6655484e-08
-6.78196e-08
-6.9161726e-08
-7.0796782e-08
-7.2581309e-08
-7.4432411e-08
-7.6799388e-08
-7.8230356e-08
-8.1591501e-08
-8.1588285e-08
-8.7019049e-08
-8.3904098e-08
-9.2994487e-08
-8.4400121e-08
-9.7863348e-08
-8.3228047e-08
-1.0010247e-07
-8.4893741e-08
-9.6866648e-08
-9.2719393e-08
-1.0039206e-07
-1.1759957e-07
-1.1373079e-08
-2.8678075e-08
-3.6383969e-08
-3.2116278e-08
-4.2648349e-08
-2.8729682e-08
-4.3263826e-08
-3.070544e-08
-4.1817754e-08
-3.4844576e-08
-4.260681e-08
-3.9987865e-08
-4.4850085e-08
-4.4934534e-08
-4.8106158e-08
-4.9539896e-08
-5.1916171e-08
-5.3820599e-08
-5.5730402e-08
-5.7490671e-08
-5.9009271e-08
-6.0348371e-08
-6.1479808e-08
-6.2460949e-08
-6.3327377e-08
-6.4139332e-08
-6.4956229e-08
-6.5840492e-08
-6.6830533e-08
-6.7994003e-08
-6.9309065e-08
-7.0844001e-08
-7.2565784e-08
-7.422962e-08
-7.655175e-08
-7.773402e-08
-8.1142631e-08
-8.0765517e-08
-8.6394699e-08
-8.2661524e-08
-9.2088647e-08
-8.2385519e-08
-9.7265509e-08
-8.1483559e-08
-9.8834083e-08
-8.2975309e-08
-9.5168479e-08
-9.0792757e-08
-9.8444451e-08
-1.1559301e-07
-1.3213294e-08
-3.0462471e-08
-3.81589e-08
-3.3660461e-08
-4.4453698e-08
-2.997768e-08
-4.5015401e-08
-3.1713884e-08
-4.3322655e-08
-3.5671322e-08
-4.3771168e-08
-4.0692195e-08
-4.5714948e-08
-4.5511452e-08
-4.8706175e-08
-4.9924354e-08
-5.2230509e-08
-5.3951206e-08
-5.5765354e-08
-5.741325e-08
-5.8870951e-08
-6.0179219e-08
-6.1319261e-08
-6.2333482e-08
-6.3253449e-08
-6.4127658e-08
-6.5004871e-08
-6.5935764e-08
-6.6954611e-08
-6.8113205e-08
-6.9398872e-08
-7.08465e-08
-7.2511892e-08
-7.4002784e-08
-7.6287509e-08
-7.7216703e-08
-8.0683201e-08
-7.9903381e-08
-8.5768064e-08
-8.1362327e-08
-9.1216995e-08
-8.0493115e-08
-9.6543785e-08
-7.9706615e-08
-9.7633011e-08
-8.1097858e-08
-9.3530885e-08
-8.8940707e-08
-9.657798e-08
-1.1367902e-07
-1.4982553e-08
-3.218454e-08
-3.9875612e-08
-3.5141269e-08
-4.6255925e-08
-3.1152727e-08
-4.6811748e-08
-3.2691173e-08
-4.4837873e-08
-3.6457677e-08
-4.4966894e-08
-4.1385995e-08
-4.6593574e-08
-4.6078065e-08
-4.9301077e-08
-5.0303627e-08
-5.2547794e-08
-5.4101643e-08
-5.5831988e-08
-5.7378529e-08
-5.8779257e-08
-6.0056702e-08
-6.1197087e-08
-6.2232652e-08
-6.3191083e-08
-6.4111239e-08
-6.5032948e-08
-6.5997163e-08
-6.7033592e-08
-6.8182829e-08
-6.943937e-08
-7.0805454e-08
-7.2420824e-08
-7.3750166e-08
-7.6005e-08
-7.6673049e-08
-8.0218998e-08
-7.9012868e-08
-8.5158787e-08
-8.0023929e-08
-9.043664e-08
-7.8770675e-08
-9.5671307e-08
-7.78538e-08
-9.651871e-08
-7.9276423e-08
-9.1959055e-08
-8.7167009e-08
-9.4791854e-08
-1.1185358e-07
-1.6683554e-08
-3.384549e-08
-4.1531659e-08
-3.6557843e-08
-4.805549e-08
-3.2232025e-08
-4.8602372e-08
-3.3485617e-08
-4.6493187e-08
-3.7221185e-08
-4.6188287e-08
-4.2057743e-08
-4.7480064e-08
-4.6631021e-08
-4.9896087e-08
-5.0680485e-08
-5.2871046e-08
-5.427132e-08
-5.5927441e-08
-5.7381229e-08
-5.8728621e-08
-5.9974133e-08
-6.1107849e-08
-6.2154815e-08
-6.3138626e-08
-6.4090508e-08
-6.5042941e-08
-6.6028685e-08
-6.7073167e-08
-6.8208303e-08
-6.9435921e-08
-7.0724737e-08
-7.2295179e-08
-7.3471661e-08
-7.5706499e-08
-7.6117949e-08
-7.9756322e-08
-7.810054e-08
-8.4578748e-08
-7.8656573e-08
-8.9738028e-08
-7.7078096e-08
-9.4834576e-08
-7.6012001e-08
-9.5437824e-08
-7.7494514e-08
-9.0448867e-08
-8.5473691e-08
-9.308531e-08
-1.1011351e-07
-1.8317407e-08
-3.5445685e-08
-4.3125269e-08
-3.791693e-08
-4.9845042e-08
-3.3187076e-08
-5.0412819e-08
-3.4245789e-08
-4.8108498e-08
-3.7905778e-08
-4.7424122e-08
-4.2698825e-08
-4.83707e-08
-4.7166355e-08
-5.0483393e-08
-5.1054814e-08
-5.3201786e-08
-5.4458967e-08
-5.604884e-08
-5.7416698e-08
-5.8713369e-08
-5.9926073e-08
-6.1046972e-08
-6.2096545e-08
-6.309461e-08
-6.4066109e-08
-6.5037333e-08
-6.6034471e-08
-6.7078633e-08
-6.819566e-08
-6.939309e-08
-7.0608432e-08
-7.2138148e-08
-7.3167745e-08
-7.5393124e-08
-7.5543908e-08
-7.9298184e-08
-7.7169035e-08
-8.4025864e-08
-7.7237952e-08
-8.9147817e-08
-7.5386307e-08
-9.4016281e-08
-7.4148114e-08
-9.4478949e-08
-7.582768e-08
-8.9014371e-08
-8.3864854e-08
-9.1457722e-08
-1.0845606e-07
-1.9883111e-08
-3.6983482e-08
-4.4654364e-08
-3.9232451e-08
-5.1616022e-08
-3.3996559e-08
-5.2180118e-08
-3.4901832e-08
-4.9743868e-08
-3.8538342e-08
-4.8681311e-08
-4.3304253e-08
-4.9263797e-08
-4.7682602e-08
-5.107128e-08
-5.1427389e-08
-5.3540604e-08
-5.4662734e-08
-5.6193185e-08
-5.7480429e-08
-5.8728558e-08
-5.9907153e-08
-6.1010657e-08
-6.2054952e-08
-6.3057703e-08
-6.4038582e-08
-6.5018474e-08
-6.6018297e-08
-6.7054963e-08
-6.8150003e-08
-6.9316309e-08
-7.0460945e-08
-7.1953712e-08
-7.2840832e-08
-7.5067911e-08
-7.4953641e-08
-7.8848751e-08
-7.6219539e-08
-8.3486451e-08
-7.5740125e-08
-8.8709515e-08
-7.3726791e-08
-9.3286995e-08
-7.2389902e-08
-9.3556088e-08
-7.4233993e-08
-8.7643764e-08
-8.2334601e-08
-8.9905386e-08
-1.068778e-07
-2.1378174e-08
-3.8454062e-08
-4.6108986e-08
-4.0489527e-08
-5.3286859e-08
-3.4752584e-08
-5.3768255e-08
-3.4990689e-08
-5.1858976e-08
-3.924071e-08
-4.9963061e-08
-4.3867001e-08
-5.0157908e-08
-4.8178175e-08
-5.1658971e-08
-5.179737e-08
-5.3887258e-08
-5.4880279e-08
-5.6357319e-08
-5.7568159e-08
-5.8769618e-08
-5.9912886e-08
-6.0994228e-08
-6.2028676e-08
-6.302645e-08
-6.4008481e-08
-6.4988555e-08
-6.5983616e-08
-6.7006696e-08
-6.8076467e-08
-6.9210812e-08
-7.0286713e-08
-7.1746285e-08
-7.2494323e-08
-7.4734576e-08
-7.4351263e-08
-7.8411743e-08
-7.5240228e-08
-8.2942043e-08
-7.41217e-08
-8.8474461e-08
-7.2151392e-08
-9.2673408e-08
-7.0713083e-08
-9.2681265e-08
-7.270366e-08
-8.6324741e-08
-8.0877582e-08
-8.842575e-08
-1.0537616e-07
-2.2800723e-08
-3.9854248e-08
-4.7486081e-08
-4.1683691e-08
-5.4850682e-08
-3.5402334e-08
-5.5409222e-08
-3.5451928e-08
-5.3529166e-08
-3.9772457e-08
-5.1301298e-08
-4.4390273e-08
-5.1051666e-08
-4.8651247e-08
-5.2245689e-08
-5.2163335e-08
-5.4241252e-08
-5.5109077e-08
-5.6538025e-08
-5.7675874e-08
-5.8832351e-08
-5.9939163e-08
-6.0994779e-08
-6.2012441e-08
-6.3002027e-08
-6.3976707e-08
-6.4949532e-08
-6.5933494e-08
-6.6938472e-08
-6.7979872e-08
-6.9081662e-08
-7.0090271e-08
-7.1520462e-08
-7.2132199e-08
-7.4397055e-08
-7.3741886e-08
-7.8000692e-08
-7.427233e-08
-8.2461158e-08
-7.275598e-08
-8.806889e-08
-7.0580457e-08
-9.2157394e-08
-6.909286e-08
-9.1860905e-08
-7.1248996e-08
-8.5055132e-08
-7.9492647e-08
-8.7018376e-08
-1.0394995e-07
-2.4149727e-08
-4.1183242e-08
-4.8789119e-08
-4.2835852e-08
-5.6362962e-08
-3.6030624e-08
-5.6990438e-08
-3.5912221e-08
-5.5109179e-08
-4.0261002e-08
-5.2572513e-08
-4.4846894e-08
-5.1942524e-08
-4.9100603e-08
-5.2830129e-08
-5.2523597e-08
-5.4602178e-08
-5.5346593e-08
-5.6732119e-08
-5.7799812e-08
-5.8912928e-08
-5.9982344e-08
-6.1009523e-08
-6.2006622e-08
-6.2981384e-08
-6.3943392e-08
-6.4903314e-08
-6.5871136e-08
-6.6853916e-08
-6.7864653e-08
-6.8933613e-08
-6.9876216e-08
-7.1280739e-08
-7.1758582e-08
-7.405903e-08
-7.3127909e-08
-7.7604044e-08
-7.3275064e-08
-8.2082238e-08
-7.1477459e-08
-8.7674721e-08
-6.9024689e-08
-9.1751093e-08
-6.7504842e-08
-9.1070796e-08
-6.9888581e-08
-8.3838809e-08
-7.8178736e-08
-8.5682899e-08
-1.0259833e-07
-2.5424588e-08
-4.2439707e-08
-5.0017429e-08
-4.3935375e-08
-5.7727622e-08
-3.6532325e-08
-5.8632616e-08
-3.6377729e-08
-5.6597914e-08
-4.0439545e-08
-5.40573e-08
-4.5310924e-08
-5.2842369e-08
-4.9524737e-08
-5.3408875e-08
-5.2875109e-08
-5.4964042e-08
-5.5589434e-08
-5.6936547e-08
-5.7936511e-08
-5.9007872e-08
-6.0039179e-08
-6.1035793e-08
-6.2009029e-08
-6.2964418e-08
-6.3909093e-08
-6.4851457e-08
-6.5799124e-08
-6.6756643e-08
-6.7734812e-08
-6.8770987e-08
-6.9648936e-08
-7.1031404e-08
-7.1377566e-08
-7.3725431e-08
-7.2516432e-08
-7.7210195e-08
-7.2218272e-08
-8.1832237e-08
-7.0263467e-08
-8.7323219e-08
-6.7526642e-08
-9.1474718e-08
-6.5922297e-08
-9.0249922e-08
-6.8604928e-08
-8.2679154e-08
-7.6936872e-08
-8.44192e-08
-1.0132038e-07
-2.662571e-08
-4.3623097e-08
-5.1171863e-08
-4.4992846e-08
-5.9003733e-08
-3.7103517e-08
-6.0165458e-08
-3.6769332e-08
-5.8017048e-08
-4.0548172e-08
-5.5527038e-08
-4.5777572e-08
-5.3726594e-08
-4.9916705e-08
-5.3987228e-08
-5.3217516e-08
-5.5327048e-08
-5.5835163e-08
-5.7148681e-08
-5.8082866e-08
-5.9114063e-08
-6.010679e-08
-6.1071278e-08
-6.2018058e-08
-6.2950656e-08
-6.3874277e-08
-6.4795431e-08
-6.5719811e-08
-6.6649774e-08
-6.7594061e-08
-6.8597752e-08
-6.9412446e-08
-7.0776294e-08
-7.0993671e-08
-7.3397671e-08
-7.1894722e-08
-7.6825346e-08
-7.1164962e-08
-8.1649606e-08
-6.9119625e-08
-8.7023158e-08
-6.6160639e-08
-9.1309968e-08
-6.4320635e-08
-8.9359727e-08
-6.738909e-08
-8.1567462e-08
-7.5761276e-08
-8.3224921e-08
-1.0011437e-07
-2.7755525e-08
-4.4735695e-08
-5.2257539e-08
-4.6017584e-08
-6.0192297e-08
-3.7694548e-08
-6.1635723e-08
-3.7101004e-08
-5.9416224e-08
-4.0793828e-08
-5.673834e-08
-4.607568e-08
-5.4687933e-08
-5.0294136e-08
-5.4559039e-08
-5.3548571e-08
-5.5689303e-08
-5.6081355e-08
-5.7365972e-08
-5.823607e-08
-5.9228725e-08
-6.0182658e-08
-6.1113976e-08
-6.2032389e-08
-6.2939631e-08
-6.3839369e-08
-6.4736515e-08
-6.5635264e-08
-6.6536062e-08
-6.7445588e-08
-6.8417427e-08
-6.9170372e-08
-7.0518947e-08
-7.0611745e-08
-7.3088243e-08
-7.1307775e-08
-7.6455817e-08
-7.0261387e-08
-8.1368269e-08
-6.7969425e-08
-8.6721699e-08
-6.4795599e-08
-9.1131364e-08
-6.2942135e-08
-8.8472142e-08
-6.6247736e-08
-8.0506478e-08
-7.4652801e-08
-8.20997e-08
-9.8979063e-08
-2.8818988e-08
-4.5782538e-08
-5.3279429e-08
-4.7012267e-08
-6.1296033e-08
-3.8291512e-08
-6.3026638e-08
-3.7326007e-08
-6.080664e-08
-4.104693e-08
-5.7915642e-08
-4.645784e-08
-5.5477301e-08
-5.0604277e-08
-5.5120584e-08
-5.3867339e-08
-5.6049144e-08
-5.63258e-08
-5.7586133e-08
-5.8393647e-08
-5.9349414e-08
-6.0264589e-08
-6.1162159e-08
-6.2050891e-08
-6.2930921e-08
-6.3804672e-08
-6.4675789e-08
-6.5547248e-08
-6.6417857e-08
-6.7292139e-08
-6.8233024e-08
-6.892583e-08
-7.0262221e-08
-7.0233015e-08
-7.2774867e-08
-7.0658643e-08
-7.6207173e-08
-6.9445595e-08
-8.1121345e-08
-6.6856794e-08
-8.6450202e-08
-6.3528299e-08
-9.0737741e-08
-6.1735074e-08
-8.7615009e-08
-6.5195389e-08
-7.9504423e-08
-7.3612132e-08
-8.1043114e-08
-9.7913281e-08
-2.9823702e-08
-4.6773834e-08
-5.4249674e-08
-4.7965514e-08
-6.2307485e-08
-3.8922514e-08
-6.4372213e-08
-3.7532638e-08
-6.2075751e-08
-4.1225867e-08
-5.894298e-08
-4.644233e-08
-5.6584032e-08
-5.0971733e-08
-5.5680395e-08
-5.417207e-08
-5.6404607e-08
-5.6566561e-08
-5.7807693e-08
-5.8553488e-08
-5.9473979e-08
-6.0350681e-08
-6.121434e-08
-6.2072597e-08
-6.2924165e-08
-6.3770477e-08
-6.4614173e-08
-6.5457258e-08
-6.629715e-08
-6.7136073e-08
-6.804709e-08
-6.8681374e-08
-7.0008678e-08
-6.986369e-08
-7.2496496e-08
-7.0123459e-08
-7.5891885e-08
-6.8656857e-08
-8.0906944e-08
-6.576651e-08
-8.6263406e-08
-6.2317841e-08
-9.0247677e-08
-6.0649095e-08
-8.6767502e-08
-6.4214473e-08
-7.8560412e-08
-7.2637465e-08
-8.0053817e-08
-9.6915591e-08
-3.0774272e-08
-4.7715746e-08
-5.5174995e-08
-4.8867984e-08
-6.3241402e-08
-3.9596615e-08
-6.55529e-08
-3.7576868e-08
-6.3340833e-08
-4.1419314e-08
-5.9958596e-08
-4.6595628e-08
-5.7455236e-08
-5.1283813e-08
-5.6241653e-08
-5.4461276e-08
-5.6753144e-08
-5.6801505e-08
-5.8026746e-08
-5.8713406e-08
-5.9600526e-08
-6.0439299e-08
-6.1269251e-08
-6.209668e-08
-6.2919048e-08
-6.3737019e-08
-6.4552429e-08
-6.5366542e-08
-6.6175603e-08
-6.6979378e-08
-6.7861796e-08
-6.8439357e-08
-6.9760377e-08
-6.9498627e-08
-7.21849e-08
-6.9428964e-08
-7.5801364e-08
-6.7969469e-08
-8.0742983e-08
-6.4752515e-08
-8.6112158e-08
-6.1148258e-08
-8.9691803e-08
-5.9658978e-08
-8.5931201e-08
-6.3303024e-08
-7.7676679e-08
-7.1728105e-08
-7.9130574e-08
-9.5984574e-08
-3.1669581e-08
-4.8604706e-08
-5.6048824e-08
-4.971912e-08
-6.4107083e-08
-4.028835e-08
-6.6588768e-08
-3.7694311e-08
-6.4472243e-08
-4.1598435e-08
-6.0944573e-08
-4.6775836e-08
-5.8231851e-08
-5.1579576e-08
-5.6753624e-08
-5.4722642e-08
-5.7091844e-08
-5.7029046e-08
-5.8242683e-08
-5.8871842e-08
-5.9727524e-08
-6.0529083e-08
-6.1325827e-08
-6.2122442e-08
-6.2915294e-08
-6.3704472e-08
-6.4491172e-08
-6.5276115e-08
-6.6054578e-08
-6.6823694e-08
-6.7678961e-08
-6.8201964e-08
-6.9520105e-08
-6.9144275e-08
-7.190108e-08
-6.8902536e-08
-7.5616808e-08
-6.7273865e-08
-8.0507199e-08
-6.3892167e-08
-8.5984285e-08
-6.0084549e-08
-8.9088338e-08
-5.8742449e-08
-8.5102196e-08
-6.2474325e-08
-7.6857985e-08
-7.0883875e-08
-7.8272224e-08
-9.5118805e-08
-3.2506508e-08
-4.9435802e-08
-5.6865343e-08
-5.0516497e-08
-6.4904552e-08
-4.0960681e-08
-6.7479709e-08
-3.7946535e-08
-6.5490671e-08
-4.1707682e-08
-6.1915906e-08
-4.6946774e-08
-5.8942358e-08
-5.1750649e-08
-5.7332534e-08
-5.4982448e-08
-5.7421658e-08
-5.7248273e-08
-5.8454262e-08
-5.9027491e-08
-5.9853728e-08
-6.0618916e-08
-6.1383184e-08
-6.2149294e-08
-6.2912667e-08
-6.3672959e-08
-6.4430886e-08
-6.5186781e-08
-6.593515e-08
-6.6670306e-08
-6.7499953e-08
-6.7970772e-08
-6.928939e-08
-6.8803274e-08
-7.1640785e-08
-6.8439792e-08
-7.542888e-08
-6.657171e-08
-8.0212971e-08
-6.3067767e-08
-8.5833095e-08
-5.9187874e-08
-8.8498374e-08
-5.7921718e-08
-8.4312536e-08
-6.1711198e-08
-7.6096568e-08
-7.0101147e-08
-7.7476662e-08
-9.4316592e-08
-3.3283003e-08
-5.0206589e-08
-5.7622777e-08
-5.1261865e-08
-6.5642477e-08
-4.1604943e-08
-6.8252973e-08
-3.8265372e-08
-6.6467433e-08
-4.1795398e-08
-6.2831188e-08
-4.709062e-08
-5.9645958e-08
-5.2010319e-08
-5.7770361e-08
-5.5197068e-08
-5.7737934e-08
-5.7458526e-08
-5.8660523e-08
-5.9179329e-08
-5.9978095e-08
-6.0707884e-08
-6.1440599e-08
-6.2176746e-08
-6.2910939e-08
-6.3642563e-08
-6.4371942e-08
-6.5099164e-08
-6.5818144e-08
-6.6520181e-08
-6.7325732e-08
-6.7746687e-08
-6.9068138e-08
-6.8474573e-08
-7.1398879e-08
-6.799631e-08
-7.518311e-08
-6.5953199e-08
-7.995874e-08
-6.2354464e-08
-8.5578173e-08
-5.8407961e-08
-8.7910925e-08
-5.7181117e-08
-8.3569664e-08
-6.1001766e-08
-7.5383695e-08
-6.9376133e-08
-7.6741788e-08
-9.3576328e-08
-3.3998809e-08
-5.0917588e-08
-5.8322654e-08
-5.195548e-08
-6.6325681e-08
-4.2219697e-08
-6.8948818e-08
-3.8653582e-08
-6.7383716e-08
-4.1847428e-08
-6.3683402e-08
-4.7206628e-08
-6.025623e-08
-5.2035474e-08
-5.8382988e-08
-5.5444675e-08
-5.804761e-08
-5.7659372e-08
-5.8860502e-08
-5.9326506e-08
-6.0099776e-08
-6.0795253e-08
-6.1497485e-08
-6.2204398e-08
-6.2909937e-08
-6.3613337e-08
-6.4314617e-08
-6.5013727e-08
-6.5704164e-08
-6.6374022e-08
-6.7156931e-08
-6.7530417e-08
-6.8855781e-08
-6.8155841e-08
-7.117748e-08
-6.7573881e-08
-7.49429e-08
-6.5391008e-08
-7.9728113e-08
-6.169291e-08
-8.5277286e-08
-5.7723924e-08
-8.7333758e-08
-5.6509858e-08
-8.2875869e-08
-6.0342753e-08
-7.4714143e-08
-6.8706967e-08
-7.6066104e-08
-9.2896621e-08
-3.4654248e-08
-5.1569747e-08
-5.896584e-08
-5.2596252e-08
-6.6954647e-08
-4.2804091e-08
-6.959143e-08
-3.9103633e-08
-6.8211006e-08
-4.1868644e-08
-6.4512224e-08
-4.7295728e-08
-6.0828409e-08
-5.213053e-08
-5.8865129e-08
-5.566965e-08
-5.8343316e-08
-5.7848907e-08
-5.905323e-08
-5.9468363e-08
-6.0218106e-08
-6.0880452e-08
-6.1553385e-08
-6.223193e-08
-6.2909511e-08
-6.3585309e-08
-6.4259108e-08
-6.4930808e-08
-6.5593638e-08
-6.6232302e-08
-6.6993905e-08
-6.7322557e-08
-6.8655357e-08
-6.7864923e-08
-7.0960188e-08
-6.7161834e-08
-7.4704504e-08
-6.4860582e-08
-7.9534713e-08
-6.1069368e-08
-8.4950078e-08
-5.7116137e-08
-8.6781021e-08
-5.5908837e-08
-8.2239356e-08
-5.9734586e-08
-7.4087201e-08
-6.8090637e-08
-7.544727e-08
-9.2275872e-08
-3.5249201e-08
-5.2163214e-08
-5.955196e-08
-5.3183917e-08
-6.7529358e-08
-4.3355525e-08
-7.018435e-08
-3.9574889e-08
-6.8926694e-08
-4.2000658e-08
-6.5217566e-08
-4.738447e-08
-6.1404746e-08
-5.223973e-08
-5.9260458e-08
-5.5865104e-08
-5.8624021e-08
-5.8026893e-08
-5.9237942e-08
-5.9604491e-08
-6.0332616e-08
-6.0963063e-08
-6.1607947e-08
-6.2259087e-08
-6.2909534e-08
-6.3558489e-08
-6.4205554e-08
-6.4850641e-08
-6.5486853e-08
-6.6095331e-08
-6.6836694e-08
-6.7121882e-08
-6.8456416e-08
-6.756252e-08
-7.0784794e-08
-6.6773392e-08
-7.4469152e-08
-6.4366199e-08
-7.938285e-08
-6.0481659e-08
-8.4587308e-08
-5.6561633e-08
-8.625951e-08
-5.5383315e-08
-8.1672767e-08
-5.9166101e-08
-7.3499215e-08
-6.7525161e-08
-7.4883847e-08
-9.171323e-08
-3.5782793e-08
-5.2697475e-08
-6.0080318e-08
-5.3719265e-08
-6.8049669e-08
-4.3872077e-08
-7.0728507e-08
-4.0062495e-08
-6.9589311e-08
-4.2148633e-08
-6.5800238e-08
-4.7537174e-08
-6.1952384e-08
-5.2339624e-08
-5.9613792e-08
-5.6044602e-08
-5.8887447e-08
-5.819334e-08
-5.9414638e-08
-5.9734831e-08
-6.044304e-08
-6.1042811e-08
-6.1660916e-08
-6.2285676e-08
-6.2909905e-08
-6.3532879e-08
-6.4154051e-08
-6.4773391e-08
-6.5384e-08
-6.5963351e-08
-6.6685543e-08
-6.6929961e-08
-6.8267316e-08
-6.7284088e-08
-7.0623719e-08
-6.639466e-08
-7.4252435e-08
-6.3938625e-08
-7.9204896e-08
-5.9899589e-08
-8.4204864e-08
-5.6067728e-08
-8.5775747e-08
-5.4924342e-08
-8.1159133e-08
-5.864779e-08
-7.2956353e-08
-6.7013062e-08
-7.4376576e-08
-9.1209356e-08
-3.6253253e-08
-5.3171442e-08
-6.0550058e-08
-5.420368e-08
-6.8515269e-08
-4.4352961e-08
-7.1229106e-08
-4.053867e-08
-7.0185502e-08
-4.2333726e-08
-6.6321864e-08
-4.7658751e-08
-6.2424867e-08
-5.2501542e-08
-5.9953035e-08
-5.6198347e-08
-5.914733e-08
-5.8352819e-08
-5.9583733e-08
-5.9859527e-08
-6.0549361e-08
-6.1119529e-08
-6.1712108e-08
-6.2311551e-08
-6.2910544e-08
-6.3508475e-08
-6.4104667e-08
-6.469917e-08
-6.5285187e-08
-6.5836468e-08
-6.6540418e-08
-6.6747696e-08
-6.809383e-08
-6.7049201e-08
-7.0430338e-08
-6.6023758e-08
-7.4030502e-08
-6.3527369e-08
-7.8999972e-08
-5.936545e-08
-8.3836558e-08
-5.5640651e-08
-8.5330675e-08
-5.4521982e-08
-8.0685472e-08
-5.8186143e-08
-7.2463943e-08
-6.6558185e-08
-7.3927566e-08
-9.0766364e-08
-3.6657724e-08
-5.3583389e-08
-6.0960095e-08
-5.4639048e-08
-6.8926869e-08
-4.480192e-08
-7.1680033e-08
-4.0990247e-08
-7.069917e-08
-4.2564591e-08
-6.6818224e-08
-4.7763896e-08
-6.2860888e-08
-5.2678133e-08
-6.0287224e-08
-5.6361692e-08
-5.9383707e-08
-5.8500869e-08
-5.9744865e-08
-5.9978669e-08
-6.0651074e-08
-6.1193043e-08
-6.1761377e-08
-6.2336604e-08
-6.2911392e-08
-6.348528e-08
-6.4057459e-08
-6.4628065e-08
-6.519047e-08
-6.5714657e-08
-6.6400658e-08
-6.657224e-08
-6.7920972e-08
-6.6808661e-08
-7.0230214e-08
-6.5685177e-08
-7.3787949e-08
-6.3101647e-08
-7.8807414e-08
-5.8917054e-08
-8.3482559e-08
-5.5265489e-08
-8.4914185e-08
-5.4167849e-08
-8.0244953e-08
-5.7783183e-08
-7.2024058e-08
-6.6164044e-08
-7.3539647e-08
-9.0387682e-08
-3.6991994e-08
-5.3930815e-08
-6.1309277e-08
-5.5028081e-08
-6.9285609e-08
-4.5224093e-08
-7.2079321e-08
-4.1411181e-08
-7.10984e-08
-4.2890858e-08
-6.7327188e-08
-4.7908192e-08
-6.3219938e-08
-5.2832015e-08
-6.0597019e-08
-5.6506909e-08
-5.9615416e-08
-5.8645061e-08
-5.9897941e-08
-6.0092364e-08
-6.0748125e-08
-6.1263264e-08
-6.1808612e-08
-6.2360733e-08
-6.2912404e-08
-6.3463303e-08
-6.4012491e-08
-6.4560177e-08
-6.5099938e-08
-6.5597999e-08
-6.6265864e-08
-6.640204e-08
-6.7741346e-08
-6.654486e-08
-7.0058285e-08
-6.5377643e-08
-7.354646e-08
-6.2706398e-08
-7.8606914e-08
-5.8527359e-08
-8.3123729e-08
-5.4926676e-08
-8.4514289e-08
-5.3856794e-08
-7.9831508e-08
-5.7440164e-08
-7.1636995e-08
-6.5833742e-08
-7.3216408e-08
-9.0078449e-08
-3.7250174e-08
-5.4210298e-08
-6.1596664e-08
-5.5374478e-08
-6.9593192e-08
-4.5627882e-08
-7.2430009e-08
-4.1817202e-08
-7.1442063e-08
-4.3252856e-08
-6.7780409e-08
-4.8072282e-08
-6.3552513e-08
-5.2993096e-08
-6.0886356e-08
-5.6621841e-08
-5.9855096e-08
-5.8789027e-08
-6.0043379e-08
-6.0200721e-08
-6.0840492e-08
-6.1330123e-08
-6.1853715e-08
-6.2383866e-08
-6.2913546e-08
-6.3442563e-08
-6.396984e-08
-6.4495638e-08
-6.5013764e-08
-6.548683e-08
-6.6136422e-08
-6.6239007e-08
-6.756412e-08
-6.6294448e-08
-6.9888095e-08
-6.509635e-08
-7.3320228e-08
-6.2367234e-08
-7.8366292e-08
-5.8168841e-08
-8.2752196e-08
-5.4619079e-08
-8.4120495e-08
-5.3585926e-08
-7.9437904e-08
-5.715822e-08
-7.1302178e-08
-6.5570069e-08
-7.2962475e-08
-8.9845898e-08
-3.7424614e-08
-5.4417499e-08
-6.1822062e-08
-5.5683385e-08
-6.9852457e-08
-4.6024825e-08
-7.2735949e-08
-4.2221071e-08
-7.1740447e-08
-4.3627751e-08
-6.8141713e-08
-4.8242107e-08
-6.3895176e-08
-5.3191751e-08
-6.1185996e-08
-5.6760551e-08
-6.0051071e-08
-5.8919692e-08
-6.0178679e-08
-6.0303483e-08
-6.0927905e-08
-6.1393516e-08
-6.189658e-08
-6.2405927e-08
-6.2914788e-08
-6.3423086e-08
-6.3929597e-08
-6.4434613e-08
-6.4932186e-08
-6.5381639e-08
-6.6012999e-08
-6.6085401e-08
-6.7394692e-08
-6.6070479e-08
-6.971536e-08
-6.483966e-08
-7.3102067e-08
-6.2065222e-08
-7.8091963e-08
-5.7840859e-08
-8.2363898e-08
-5.4340726e-08
-8.3720475e-08
-5.3351481e-08
-7.9053915e-08
-5.6937821e-08
-7.1018148e-08
-6.5375189e-08
-7.2783979e-08
-8.9699245e-08
-3.7506524e-08
-5.4547197e-08
-6.1987456e-08
-5.5962199e-08
-7.0068623e-08
-4.6431012e-08
-7.3003534e-08
-4.2634823e-08
-7.1995616e-08
-4.4020198e-08
-6.8441184e-08
-4.8444531e-08
-6.4213125e-08
-5.3407445e-08
-6.1478127e-08
-5.6912557e-08
-6.0219852e-08
-5.9042097e-08
-6.0304061e-08