/*--------------------------------*- C++ -*----------------------------------*\
  =========                 |
  \\      /  F ield         | OpenFOAM: The Open Source CFD Toolbox
   \\    /   O peration     | Website:  https://openfoam.org
    \\  /    A nd           | Version:  11
     \\/     M anipulation  |
\*---------------------------------------------------------------------------*/
FoamFile
{
    format      ascii;
    class       volScalarField;
    location    "20/Air";
    object      p_rgh;
}
// * * * * * * * * * * * * * * * * * * * * * * * * * * * * * * * * * * * * * //

dimensions      [1 -1 -2 0 0 0 0];

internalField   nonuniform List<scalar> 
124340
(
6.295042e-11
-8.5784818e-07
-2.1599863e-06
-2.5618751e-07
-2.9550279e-06
1.9970933e-09
-2.961467e-06
-3.3120821e-07
-2.5530239e-06
-8.652563e-07
-2.1094492e-06
-1.3531669e-06
-1.8217409e-06
-1.6752773e-06
-1.7188871e-06
-1.7825096e-06
-1.7542642e-06
-1.8231239e-06
-1.7878937e-06
-1.8327367e-06
-1.8116897e-06
-1.8287881e-06
-1.8190378e-06
-1.8173344e-06
-1.812235e-06
-1.8065273e-06
-1.8013786e-06
-1.7994687e-06
-1.7894209e-06
-1.8053584e-06
-1.78837e-06
-1.8326086e-06
-1.7922406e-06
-1.8679843e-06
-1.8341492e-06
-1.9017419e-06
-1.9544887e-06
-1.8013027e-06
-2.2856864e-06
-1.5222518e-06
-2.7737631e-06
-1.084355e-06
-3.309179e-06
-6.7852568e-07
-3.6410217e-06
-6.9998543e-07
-3.3800104e-06
-1.4955648e-06
-2.7908553e-06
-3.6472592e-06
-2.9550859e-07
-1.0342454e-06
-2.3288516e-06
-1.5407747e-07
-3.1391717e-06
1.2328771e-07
-3.1002573e-06
-2.2827739e-07
-2.6491055e-06
-8.0750387e-07
-2.1580447e-06
-1.3406695e-06
-1.8226972e-06
-1.681062e-06
-1.7121322e-06
-1.7799001e-06
-1.7455637e-06
-1.8171182e-06
-1.7784619e-06
-1.8298946e-06
-1.8063085e-06
-1.8257849e-06
-1.8167256e-06
-1.8158531e-06
-1.8116601e-06
-1.8067721e-06
-1.8025097e-06
-1.8013249e-06
-1.7920799e-06
-1.8104153e-06
-1.7911323e-06
-1.8407063e-06
-1.7963902e-06
-1.8769618e-06
-1.8363794e-06
-1.9080548e-06
-1.9499541e-06
-1.7959141e-06
-2.3017897e-06
-1.474047e-06
-2.8324236e-06
-9.8866278e-07
-3.4124841e-06
-5.4042382e-07
-3.7652519e-06
-5.1001472e-07
-3.4885372e-06
-1.325033e-06
-2.616923e-06
-3.3611988e-06
-1.3279338e-07
-9.6339764e-07
-2.3610259e-06
-5.8039795e-08
-3.2487466e-06
2.2365996e-07
-3.21013e-06
-1.441936e-07
-2.732496e-06
-7.5559688e-07
-2.2062161e-06
-1.3203944e-06
-1.8365358e-06
-1.6746898e-06
-1.7143113e-06
-1.7775918e-06
-1.7417473e-06
-1.8127179e-06
-1.7739492e-06
-1.8260753e-06
-1.8023833e-06
-1.8228308e-06
-1.8145046e-06
-1.8144696e-06
-1.8111072e-06
-1.807069e-06
-1.8036089e-06
-1.8032737e-06
-1.7946341e-06
-1.8142587e-06
-1.7938116e-06
-1.8455751e-06
-1.8005759e-06
-1.8800357e-06
-1.8388861e-06
-1.9049435e-06
-1.9568313e-06
-1.7815919e-06
-2.3224986e-06
-1.425193e-06
-2.8843278e-06
-9.0533907e-07
-3.4968141e-06
-4.3116368e-07
-3.8669008e-06
-3.9848214e-07
-3.5862451e-06
-1.2905241e-06
-2.6858388e-06
-3.5243377e-06
-1.0134595e-07
-9.9309185e-07
-2.4081846e-06
-1.585009e-08
-3.3242716e-06
2.8403122e-07
-3.2867371e-06
-9.045838e-08
-2.7935981e-06
-7.1884412e-07
-2.2464004e-06
-1.2998913e-06
-1.8542129e-06
-1.6618861e-06
-1.7225216e-06
-1.7734195e-06
-1.7419929e-06
-1.807282e-06
-1.7719444e-06
-1.8216902e-06
-1.7993059e-06
-1.8194819e-06
-1.8124141e-06
-1.8130368e-06
-1.8105576e-06
-1.8074289e-06
-1.8048387e-06
-1.8051465e-06
-1.7975935e-06
-1.81704e-06
-1.7966302e-06
-1.848738e-06
-1.8064292e-06
-1.8791239e-06
-1.8435581e-06
-1.8957256e-06
-1.9702927e-06
-1.7626443e-06
-2.3429561e-06
-1.3840895e-06
-2.9205076e-06
-8.4390591e-07
-3.5503156e-06
-3.5460319e-07
-3.9274628e-06
-3.2222186e-07
-3.6294848e-06
-1.2427646e-06
-2.6538176e-06
-3.5545399e-06
-7.3024019e-08
-9.8674549e-07
-2.4399968e-06
1.2600991e-08
-3.3777719e-06
3.2250399e-07
-3.3428365e-06
-5.5221302e-08
-2.8409579e-06
-6.9183661e-07
-2.2815118e-06
-1.2797145e-06
-1.874407e-06
-1.645908e-06
-1.7333594e-06
-1.7679188e-06
-1.7444033e-06
-1.8011698e-06
-1.7717385e-06
-1.8167255e-06
-1.7969955e-06
-1.8158227e-06
-1.8104445e-06
-1.8115892e-06
-1.8100237e-06
-1.8078494e-06
-1.8061759e-06
-1.8070254e-06
-1.8011509e-06
-1.8202047e-06
-1.8003238e-06
-1.8489972e-06
-1.8130092e-06
-1.8761663e-06
-1.8496144e-06
-1.883962e-06
-1.9869153e-06
-1.7405729e-06
-2.3631648e-06
-1.3481521e-06
-2.9467116e-06
-7.9597714e-07
-3.5849829e-06
-2.9811751e-07
-3.9657022e-06
-2.6822884e-07
-3.6592877e-06
-1.2116301e-06
-2.6614475e-06
-3.5823525e-06
-6.9924891e-08
-9.8989723e-07
-2.4668117e-06
2.9902072e-08
-3.4183814e-06
3.4628332e-07
-3.3858079e-06
-3.2010049e-08
-2.879201e-06
-6.7102268e-07
-2.3130351e-06
-1.2595023e-06
-1.8967628e-06
-1.628826e-06
-1.7450681e-06
-1.7625236e-06
-1.7476928e-06
-1.7946735e-06
-1.7727983e-06
-1.8114162e-06
-1.795257e-06
-1.8119585e-06
-1.8085908e-06
-1.8101916e-06
-1.8095313e-06
-1.8083199e-06
-1.8075685e-06
-1.8089108e-06
-1.8049605e-06
-1.8224429e-06
-1.8051868e-06
-1.847996e-06
-1.8201185e-06
-1.8725261e-06
-1.8566209e-06
-1.8710812e-06
-2.0046483e-06
-1.7160489e-06
-2.3839385e-06
-1.3159161e-06
-2.9665601e-06
-7.5683507e-07
-3.6073838e-06
-2.5437815e-07
-3.9888707e-06
-2.2668196e-07
-3.6761847e-06
-1.1840049e-06
-2.6635045e-06
-3.5863185e-06
-7.2987919e-08
-9.9447983e-07
-2.4879763e-06
3.8800101e-08
-3.4493786e-06
3.5952917e-07
-3.4191337e-06
-1.7481533e-08
-2.9106195e-06
-6.5543141e-07
-2.3415111e-06
-1.2371628e-06
-1.9225174e-06
-1.6116435e-06
-1.7596001e-06
-1.7536315e-06
-1.7507171e-06
-1.7880766e-06
-1.774308e-06
-1.8051448e-06
-1.7947166e-06
-1.8083398e-06
-1.8068869e-06
-1.8089046e-06
-1.8091019e-06
-1.808821e-06
-1.8089528e-06
-1.8107609e-06
-1.8087984e-06
-1.8241061e-06
-1.8104369e-06
-1.8465879e-06
-1.827488e-06
-1.8691012e-06
-1.8670528e-06
-1.8552456e-06
-2.0231594e-06
-1.6915999e-06
-2.4010718e-06
-1.2863995e-06
-2.9808062e-06
-7.2419905e-07
-3.6209275e-06
-2.2022747e-07
-4.0012443e-06
-1.9464598e-07
-3.6846625e-06
-1.1629889e-06
-2.6604644e-06
-3.5828531e-06
-7.804285e-08
-9.9742813e-07
-2.5076086e-06
4.0092401e-08
-3.4743083e-06
3.6535166e-07
-3.4457743e-06
-9.1323205e-09
-2.9370475e-06
-6.4408465e-07
-2.3672972e-06
-1.2203393e-06
-1.9457657e-06
-1.5946086e-06
-1.7748042e-06
-1.7442481e-06
-1.7532107e-06
-1.7819633e-06
-1.7756667e-06
-1.7993102e-06
-1.7941497e-06
-1.8051674e-06
-1.8053528e-06
-1.8077631e-06
-1.8087458e-06
-1.8093305e-06
-1.8102756e-06
-1.8125446e-06
-1.8124976e-06
-1.825021e-06
-1.8162612e-06
-1.8449683e-06
-1.834533e-06
-1.8663648e-06
-1.877842e-06
-1.8392283e-06
-2.0426067e-06
-1.6665059e-06
-2.4156987e-06
-1.2595131e-06
-2.9908032e-06
-6.9710606e-07
-3.6281664e-06
-1.9253772e-07
-4.0059691e-06
-1.6857121e-07
-3.6850176e-06
-1.1422983e-06
-2.656065e-06
-3.576376e-06
-8.4849239e-08
-1.002253e-06
-2.5243997e-06
3.697075e-08
-3.4948193e-06
3.660551e-07
-3.4676318e-06
-5.2651866e-09
-2.9595202e-06
-6.361006e-07
-2.3905211e-06
-1.2058804e-06
-1.9683898e-06
-1.5776584e-06
-1.7895447e-06
-1.7345446e-06
-1.756174e-06
-1.7772382e-06
-1.7766352e-06
-1.7942199e-06
-1.7931469e-06
-1.8027249e-06
-1.8040285e-06
-1.8067793e-06
-1.8084622e-06
-1.8098303e-06
-1.811505e-06
-1.8142207e-06
-1.8157033e-06
-1.8255828e-06
-1.8222721e-06
-1.8435466e-06
-1.8404304e-06
-1.8626656e-06
-1.8893284e-06
-1.8239854e-06
-2.0594982e-06
-1.6429083e-06
-2.4292606e-06
-1.2356309e-06
-2.9974752e-06
-6.73472e-07
-3.6307891e-06
-1.6942769e-07
-4.0054216e-06
-1.4664207e-07
-3.680453e-06
-1.1237014e-06
-2.6491531e-06
-3.567834e-06
-9.2921013e-08
-1.0089516e-06
-2.5389146e-06
3.1320987e-08
-3.5120668e-06
3.6338289e-07
-3.4859979e-06
-4.6236477e-09
-2.9787623e-06
-6.3089425e-07
-2.4113662e-06
-1.1930525e-06
-1.9920324e-06
-1.5602599e-06
-1.8036788e-06
-1.724626e-06
-1.7597982e-06
-1.7738164e-06
-1.777005e-06
-1.7900841e-06
-1.7924368e-06
-1.8002692e-06
-1.8028256e-06
-1.8059279e-06
-1.8082407e-06
-1.8103088e-06
-1.8126256e-06
-1.8157481e-06
-1.8182999e-06
-1.8265796e-06
-1.8274375e-06
-1.8428934e-06
-1.8449033e-06
-1.8586585e-06
-1.9011457e-06
-1.8097487e-06
-2.0754954e-06
-1.620987e-06
-2.4405273e-06
-1.2141555e-06
-3.0014052e-06
-6.5325907e-07
-3.63021e-06
-1.4983046e-07
-4.0014352e-06
-1.2789754e-07
-3.673124e-06
-1.1071583e-06
-2.6403703e-06
-3.5580321e-06
-1.0185364e-07
-1.016944e-06
-2.5518862e-06
2.4174181e-08
-3.5269269e-06
3.5857939e-07
-3.501731e-06
-6.2614274e-09
-2.9952922e-06
-6.280486e-07
-2.4299017e-06
-1.1827402e-06
-2.0135523e-06
-1.5456037e-06
-1.8169231e-06
-1.7156268e-06
-1.7636009e-06
-1.7711082e-06
-1.7766521e-06
-1.7870427e-06
-1.7916341e-06
-1.7981962e-06
-1.8016318e-06
-1.8051841e-06
-1.8080774e-06
-1.8107664e-06
-1.8136492e-06
-1.8171446e-06
-1.8205882e-06
-1.8277849e-06
-1.8315525e-06
-1.8432735e-06
-1.8489057e-06
-1.8543211e-06
-1.91141e-06
-1.7965037e-06
-2.0894829e-06
-1.5991131e-06
-2.4502392e-06
-1.1961404e-06
-3.0031552e-06
-6.3590445e-07
-3.627411e-06
-1.3290855e-07
-3.9953149e-06
-1.1154817e-07
-3.6642674e-06
-1.092217e-06
-2.630454e-06
-3.5474782e-06
-1.1129978e-07
-1.025716e-06
-2.5638088e-06
1.6157845e-08
-3.5400278e-06
3.524701e-07
-3.5154236e-06
-9.5042939e-09
-3.0094925e-06
-6.271363e-07
-2.4452413e-06
-1.1738591e-06
-2.0339593e-06
-1.5337388e-06
-1.8292919e-06
-1.7077826e-06
-1.7677826e-06
-1.7685695e-06
-1.775781e-06
-1.7848549e-06
-1.7905347e-06
-1.7964979e-06
-1.8007379e-06
-1.8045956e-06
-1.807977e-06
-1.8112033e-06
-1.8145959e-06
-1.8185013e-06
-1.8227005e-06
-1.829012e-06
-1.8345153e-06
-1.8444335e-06
-1.8525438e-06
-1.849721e-06
-1.9200121e-06
-1.7850503e-06
-2.0998927e-06
-1.5814206e-06
-2.4561516e-06
-1.1810182e-06
-3.0030125e-06
-6.2091453e-07
-3.6230761e-06
-1.1808379e-07
-3.9879311e-06
-9.7019616e-08
-3.6546193e-06
-1.0784857e-06
-2.6199546e-06
-3.536555e-06
-1.2101536e-07
-1.0349086e-06
-2.5749668e-06
7.7029774e-09
-3.5517901e-06
3.4560117e-07
-3.5275042e-06
-1.3873825e-08
-3.021779e-06
-6.2790612e-07
-2.4579762e-06
-1.1689896e-06
-2.0512487e-06
-1.5240108e-06
-1.8400103e-06
-1.701202e-06
-1.7720044e-06
-1.7663444e-06
-1.774844e-06
-1.783289e-06
-1.7894587e-06
-1.7952577e-06
-1.7999358e-06
-1.8041293e-06
-1.8079272e-06
-1.8116107e-06
-1.8154346e-06
-1.8196685e-06
-1.8243914e-06
-1.8303927e-06
-1.8366191e-06
-1.8456209e-06
-1.8557944e-06
-1.8452542e-06
-1.9270856e-06
-1.7758609e-06
-2.1065227e-06
-1.5676363e-06
-2.459078e-06
-1.168204e-06
-3.0013138e-06
-6.0787805e-07
-3.6177006e-06
-1.0494473e-07
-3.9798594e-06
-8.3919177e-08
-3.6446484e-06
-1.0657045e-06
-2.6092468e-06
-3.5255302e-06
-1.3088737e-07
-1.0443409e-06
-2.5854738e-06
-8.4785523e-10
-3.5624736e-06
3.3834497e-07
-3.5382897e-06
-1.9009541e-08
-3.0325124e-06
-6.3002835e-07
-2.4687435e-06
-1.1671211e-06
-2.0642039e-06
-1.5177342e-06
-1.848969e-06
-1.6959974e-06
-1.7761609e-06
-1.7643888e-06
-1.7741815e-06
-1.7822237e-06
-1.7885695e-06
-1.7943373e-06
-1.7992905e-06
-1.8037708e-06
-1.8079284e-06
-1.8119847e-06
-1.8161657e-06
-1.8206922e-06
-1.8257164e-06
-1.8316376e-06
-1.838092e-06
-1.8464674e-06
-1.8586978e-06
-1.841002e-06
-1.9327969e-06
-1.7676993e-06
-2.110945e-06
-1.5566461e-06
-2.4599357e-06
-1.1572659e-06
-2.9984261e-06
-5.9645862e-07
-3.6116565e-06
-9.3187196e-08
-3.9714884e-06
-7.1993971e-08
-3.6346907e-06
-1.0537373e-06
-2.5985412e-06
-3.5145508e-06
-1.4088455e-07
-1.0540677e-06
-2.5952384e-06
-9.2004943e-09
-3.5722456e-06
3.3095362e-07
-3.54802e-06
-2.4631237e-08
-3.0419831e-06
-6.3314779e-07
-2.4779632e-06
-1.1671704e-06
-2.0742394e-06
-1.5141798e-06
-1.8565638e-06
-1.6918261e-06
-1.7802587e-06
-1.7627178e-06
-1.7738834e-06
-1.7815843e-06
-1.7879276e-06
-1.7936862e-06
-1.7988177e-06
-1.8035265e-06
-1.8079657e-06
-1.8123207e-06
-1.816784e-06
-1.821542e-06
-1.8267519e-06
-1.8326398e-06
-1.8390822e-06
-1.8469228e-06
-1.8611848e-06
-1.836983e-06
-1.9372283e-06
-1.7603216e-06
-2.1138732e-06
-1.5476422e-06
-2.4593543e-06
-1.1478722e-06
-2.9946876e-06
-5.8637962e-07
-3.605227e-06
-8.2578388e-08
-3.9630811e-06
-6.1083564e-08
-3.6250212e-06
-1.0426055e-06
-2.5878399e-06
-3.5036659e-06
-1.5073305e-07
-1.0636263e-06
-2.6044949e-06
-1.7350227e-08
-3.5812808e-06
3.2358819e-07
-3.5568811e-06
-3.0518711e-08
-3.0504198e-06
-6.3694159e-07
-2.4859322e-06
-1.1684133e-06
-2.082336e-06
-1.5121008e-06
-1.8634958e-06
-1.6885276e-06
-1.7843232e-06
-1.7613364e-06
-1.7739676e-06
-1.7813101e-06
-1.7875435e-06
-1.7932744e-06
-1.7985108e-06
-1.8033856e-06
-1.808036e-06
-1.8126177e-06
-1.8172925e-06
-1.8222177e-06
-1.8275338e-06
-1.8333805e-06
-1.8396948e-06
-1.8469932e-06
-1.8631998e-06
-1.8333262e-06
-1.9400518e-06
-1.7542668e-06
-2.1155403e-06
-1.5401324e-06
-2.457765e-06
-1.139752e-06
-2.9903871e-06
-5.7741016e-07
-3.5986285e-06
-7.2934365e-08
-3.9548068e-06
-5.10446e-08
-3.6157431e-06
-1.0322272e-06
-2.5773664e-06
-3.4930299e-06
-1.6024234e-07
-1.0727168e-06
-2.6132736e-06
-2.5269447e-08
-3.5897097e-06
3.1635302e-07
-3.5650183e-06
-3.6503415e-08
-3.0580076e-06
-6.4114979e-07
-2.4928872e-06
-1.1704036e-06
-2.089051e-06
-1.5108654e-06
-1.8700117e-06
-1.6860662e-06
-1.7881012e-06
-1.7602374e-06
-1.7744097e-06
-1.7813418e-06
-1.7874007e-06
-1.793073e-06
-1.7983552e-06
-1.8033368e-06
-1.808134e-06
-1.8128763e-06
-1.8176985e-06
-1.822731e-06
-1.8280928e-06
-1.8338751e-06
-1.8400054e-06
-1.8467261e-06
-1.8647384e-06
-1.8299805e-06
-1.9417944e-06
-1.748511e-06
-2.1165276e-06
-1.5339645e-06
-2.4555045e-06
-1.1326714e-06
-2.9857529e-06
-5.6935528e-07
-3.5920212e-06
-6.4106516e-08
-3.9467692e-06
-4.174489e-08
-3.6068614e-06
-1.0224908e-06
-2.567413e-06
-3.482831e-06
-1.6934979e-07
-1.0813924e-06
-2.6216136e-06
-3.291775e-08
-3.5976163e-06
3.0931939e-07
-3.5725443e-06
-4.2460806e-08
-3.0648977e-06
-6.4557838e-07
-2.4990285e-06
-1.1729034e-06
-2.0948247e-06
-1.5105393e-06
-1.8759251e-06
-1.6844191e-06
-1.7917478e-06
-1.7594443e-06
-1.7751613e-06
-1.7816205e-06
-1.7874674e-06
-1.7930514e-06
-1.7983313e-06
-1.8033672e-06
-1.8082542e-06
-1.8130988e-06
-1.8180113e-06
-1.8230989e-06
-1.8284594e-06
-1.8341545e-06
-1.840077e-06
-1.8461698e-06
-1.8658691e-06
-1.8268523e-06
-1.942731e-06
-1.7435308e-06
-2.1164037e-06
-1.5287724e-06
-2.4527615e-06
-1.1264051e-06
-2.9809539e-06
-5.620508e-07
-3.5855187e-06
-5.5974533e-08
-3.9390312e-06
-3.3083421e-08
-3.5983834e-06
-1.0133243e-06
-2.557958e-06
-3.4731214e-06
-1.7803618e-07
-1.0896846e-06
-2.6295411e-06
-4.0262948e-08
-3.6050561e-06
3.0253538e-07
-3.5795454e-06
-4.8302825e-08
-3.071216e-06
-6.5009221e-07
-2.5045309e-06
-1.1757254e-06
-2.0995936e-06
-1.5105724e-06
-1.8812239e-06
-1.6839057e-06
-1.7952379e-06
-1.7589285e-06
-1.77616e-06
-1.7820863e-06
-1.7877046e-06
-1.7931773e-06
-1.7984175e-06
-1.8034632e-06
-1.8083912e-06
-1.8132874e-06
-1.8182415e-06
-1.8233402e-06
-1.8286634e-06
-1.8342538e-06
-1.8399658e-06
-1.8453863e-06
-1.8666607e-06
-1.8240722e-06
-1.9430464e-06
-1.7391794e-06
-2.1153547e-06
-1.5241921e-06
-2.4496664e-06
-1.1207556e-06
-2.9761088e-06
-5.553625e-07
-3.5791991e-06
-4.8442862e-08
-3.9316311e-06
-2.498879e-08
-3.590319e-06
-1.0046852e-06
-2.5489867e-06
-3.4639126e-06
-1.8629554e-07
-1.097594e-06
-2.6370718e-06
-4.7284906e-08
-3.6120683e-06
2.9603215e-07
-3.5860878e-06
-5.3971108e-08
-3.0770635e-06
-6.5460405e-07
-2.5095578e-06
-1.1787971e-06
-2.1038392e-06
-1.511589e-06
-1.8857327e-06
-1.6838109e-06
-1.7985293e-06
-1.7586151e-06
-1.7773407e-06
-1.7826819e-06
-1.7880726e-06
-1.7934197e-06
-1.7985917e-06
-1.8036113e-06
-1.8085394e-06
-1.813445e-06
-1.8183997e-06
-1.8234735e-06
-1.8287314e-06
-1.8342053e-06
-1.8397167e-06
-1.8444357e-06
-1.8671372e-06
-1.8219979e-06
-1.9425893e-06
-1.7352537e-06
-2.1136341e-06
-1.5200141e-06
-2.4463393e-06
-1.1155773e-06
-2.9713022e-06
-5.4918583e-07
-3.5731131e-06
-4.1436865e-08
-3.9245904e-06
-1.7409338e-08
-3.5826747e-06
-9.9654683e-07
-2.5404943e-06
-3.4552052e-06
-1.9413186e-07
-1.1051267e-06
-2.6442228e-06
-5.3974698e-08
-3.6186822e-06
2.8982789e-07
-3.5922219e-06
-5.9428347e-08
-3.0825164e-06
-6.5905266e-07
-2.514222e-06
-1.1820312e-06
-2.1077638e-06
-1.5132519e-06
-1.8897907e-06
-1.6839755e-06
-1.8015134e-06
-1.7584553e-06
-1.7786431e-06
-1.783359e-06
-1.7885357e-06
-1.7937509e-06
-1.7988342e-06
-1.803799e-06
-1.8086942e-06
-1.8135742e-06
-1.8184961e-06
-1.8235155e-06
-1.8286862e-06
-1.834035e-06
-1.8393574e-06
-1.8433458e-06
-1.8672743e-06
-1.8199418e-06
-1.9418196e-06
-1.7319043e-06
-2.1114912e-06
-1.51615e-06
-2.4428978e-06
-1.1107746e-06
-2.9665969e-06
-5.4344355e-07
-3.5672919e-06
-3.4899236e-08
-3.9179189e-06
-1.0306289e-08
-3.5754513e-06
-9.8888904e-07
-2.5324781e-06
-3.446995e-06
-2.0155563e-07
-1.1123085e-06
-2.6510148e-06
-6.0330185e-08
-3.6249202e-06
2.8393142e-07
-3.5979854e-06
-6.4651845e-08
-3.087628e-06
-6.6339273e-07
-2.5185931e-06
-1.1853449e-06
-2.1114518e-06
-1.5153513e-06
-1.8935901e-06
-1.6845583e-06
-1.8039247e-06
-1.7584608e-06
-1.7800234e-06
-1.7840831e-06
-1.7890656e-06
-1.7941474e-06
-1.7991277e-06
-1.8040156e-06
-1.8088512e-06
-1.8136776e-06
-1.8185396e-06
-1.8234814e-06
-1.8285482e-06
-1.8337655e-06
-1.8389078e-06
-1.8421344e-06
-1.8671605e-06
-1.8178727e-06
-1.9407756e-06
-1.728943e-06
-2.1091499e-06
-1.5125401e-06
-2.4394369e-06
-1.1062854e-06
-2.962038e-06
-5.3807994e-07
-3.5617525e-06
-2.8785917e-08
-3.9116177e-06
-3.6484634e-09
-3.5686442e-06
-9.8169381e-07
-2.5249328e-06
-3.4392741e-06
-2.0855934e-07
-1.1191075e-06
-2.6574386e-06
-6.6347497e-08
-3.6307993e-06
2.7834519e-07
-3.6034064e-06
-6.9629023e-08
-3.0924349e-06
-6.6759014e-07
-2.5227104e-06
-1.1886566e-06
-2.114922e-06
-1.517685e-06
-1.896828e-06
-1.6855354e-06
-1.8061619e-06
-1.7586936e-06
-1.7814701e-06
-1.784838e-06
-1.789643e-06
-1.7945911e-06
-1.7994577e-06
-1.8042519e-06
-1.8090073e-06
-1.8137578e-06
-1.8185386e-06
-1.8233848e-06
-1.8283346e-06
-1.8334148e-06
-1.8383886e-06
-1.8408577e-06
-1.866869e-06
-1.8157787e-06
-1.9395597e-06
-1.7262089e-06
-2.1067411e-06
-1.5091408e-06
-2.4360236e-06
-1.102069e-06
-2.9576555e-06
-5.3305491e-07
-3.5565023e-06
-2.3062741e-08
-3.9056818e-06
2.5900668e-09
-3.562244e-06
-9.7494419e-07
-2.5178484e-06
-3.4320313e-06
-2.151388e-07
-1.1255041e-06
-2.6634866e-06
-7.202538e-08
-3.6363332e-06
2.7306714e-07
-3.6085063e-06
-7.4354215e-08
-3.0969622e-06
-6.7162135e-07
-2.5265973e-06
-1.1919061e-06
-2.1181939e-06
-1.5200814e-06
-1.8996979e-06
-1.6867404e-06
-1.8083837e-06
-1.7590815e-06
-1.7829611e-06
-1.785614e-06
-1.7902554e-06
-1.7950688e-06
-1.7998134e-06
-1.8045008e-06
-1.8091598e-06
-1.8138172e-06
-1.8185003e-06
-1.8232365e-06
-1.8280585e-06
-1.8329965e-06
-1.837808e-06
-1.8394938e-06
-1.8664436e-06
-1.813664e-06
-1.9382475e-06
-1.7236151e-06
-2.1043345e-06
-1.5059219e-06
-2.432701e-06
-1.0980972e-06
-2.9534677e-06
-5.2833916e-07
-3.5515414e-06
-1.7702323e-08
-3.900102e-06
8.4321997e-09
-3.5562386e-06
-9.6862266e-07
-2.5112121e-06
-3.4252525e-06
-2.212995e-07
-1.1314995e-06
-2.6691628e-06
-7.7368041e-08
-3.6415348e-06
2.680918e-07
-3.6133023e-06
-7.8826748e-08
-3.1012281e-06
-6.7547181e-07
-2.5302693e-06
-1.1950545e-06
-2.1212866e-06
-1.5224535e-06
-1.902349e-06
-1.6880513e-06
-1.8106113e-06
-1.7595772e-06
-1.7844885e-06
-1.7864046e-06
-1.7908935e-06
-1.7955708e-06
-1.8001866e-06
-1.804757e-06
-1.8093072e-06
-1.813858e-06
-1.8184303e-06
-1.8230453e-06
-1.8277313e-06
-1.8325234e-06
-1.8371806e-06
-1.8380632e-06
-1.8659208e-06
-1.8115401e-06
-1.9368882e-06
-1.7211244e-06
-2.1019678e-06
-1.502864e-06
-2.4294953e-06
-1.0943503e-06
-2.9494842e-06
-5.2391059e-07
-3.5468654e-06
-1.2681983e-08
-3.8948667e-06
1.3898511e-08
-3.5506137e-06
-9.6271168e-07
-2.5050089e-06
-3.4189216e-06
-2.2705315e-07
-1.1371039e-06
-2.6744775e-06
-8.2384075e-08
-3.6464173e-06
2.6341118e-07
-3.6178091e-06
-8.3049728e-08
-3.1052463e-06
-6.791336e-07
-2.5337382e-06
-1.1980794e-06
-2.1242155e-06
-1.5247622e-06
-1.9048555e-06
-1.6894004e-06
-1.8128368e-06
-1.7601411e-06
-1.7860473e-06
-1.7872027e-06
-1.7915491e-06
-1.7960891e-06
-1.8005708e-06
-1.8050164e-06
-1.8094482e-06
-1.813882e-06
-1.8183336e-06
-1.8228191e-06
-1.827363e-06
-1.8320071e-06
-1.8365209e-06
-1.8365858e-06
-1.8653271e-06
-1.8094224e-06
-1.935514e-06
-1.7187271e-06
-2.0996628e-06
-1.4999556e-06
-2.4264216e-06
-1.0908137e-06
-2.9457084e-06
-5.197516e-07
-3.5424667e-06
-7.9821892e-09
-3.8899622e-06
1.9008211e-08
-3.5453539e-06
-9.5719347e-07
-2.4992227e-06
-3.4130213e-06
-2.3241454e-07
-1.1423313e-06
-2.6794445e-06
-8.7084774e-08
-3.6509938e-06
2.5901548e-07
-3.6220399e-06
-8.7028792e-08
-3.1090281e-06
-6.8260386e-07
-2.5370134e-06
-1.200969e-06
-2.1269913e-06
-1.5269898e-06
-1.9072461e-06
-1.6907499e-06
-1.8150455e-06
-1.7607492e-06
-1.7876378e-06
-1.788001e-06
-1.7922148e-06
-1.7966169e-06
-1.8009607e-06
-1.8052758e-06
-1.8095821e-06
-1.8138913e-06
-1.818215e-06
-1.8225648e-06
-1.8269625e-06
-1.8314579e-06
-1.83584e-06
-1.8350699e-06
-1.8646785e-06
-1.8073444e-06
-1.9341363e-06
-1.7164233e-06
-2.0974311e-06
-1.4971907e-06
-2.4234882e-06
-1.0874764e-06
-2.9421391e-06
-5.1584745e-07
-3.538336e-06
-3.5856199e-09
-3.8853742e-06
2.3779233e-08
-3.5404429e-06
-9.5205041e-07
-2.4938364e-06
-3.4075338e-06
-2.3739975e-07
-1.1471972e-06
-2.6840784e-06
-9.1482982e-08
-3.6552776e-06
2.5489373e-07
-3.6260071e-06
-9.0771215e-08
-3.1125836e-06
-6.8588344e-07
-2.5401028e-06
-1.2037175e-06
-2.1296205e-06
-1.5291281e-06
-1.9095269e-06
-1.6920787e-06
-1.8172193e-06
-1.7613855e-06
-1.789245e-06
-1.7887902e-06
-1.7928842e-06
-1.7971486e-06
-1.801352e-06
-1.8055326e-06
-1.8097085e-06
-1.8138878e-06
-1.8180786e-06
-1.8222887e-06
-1.8265376e-06
-1.8308847e-06
-1.8351484e-06
-1.8335356e-06
-1.8639714e-06
-1.8053312e-06
-1.932774e-06
-1.7142287e-06
-2.0952805e-06
-1.4945669e-06
-2.4206982e-06
-1.0843292e-06
-2.9387725e-06
-5.1218515e-07
-3.5344628e-06
5.2356182e-10
-3.881088e-06
2.8228718e-08
-3.5358646e-06
-9.4726511e-07
-2.4888329e-06
-3.4024412e-06
-2.4202498e-07
-1.1517176e-06
-2.6883944e-06
-9.559245e-08
-3.659282e-06
2.5103409e-07
-3.6297223e-06
-9.4285467e-08
-3.1159222e-06
-6.889757e-07
-2.5430135e-06
-1.2063233e-06
-2.1321064e-06
-1.531174e-06
-1.911694e-06
-1.6933806e-06
-1.819329e-06
-1.7620389e-06
-1.79085e-06
-1.7895625e-06
-1.7935517e-06
-1.7976796e-06
-1.8017412e-06
-1.8057849e-06
-1.8098273e-06
-1.8138735e-06
-1.8179283e-06
-1.8219964e-06
-1.826095e-06
-1.830295e-06
-1.8344515e-06
-1.8319864e-06
-1.8631438e-06
-1.8034389e-06
-1.9314574e-06
-1.7121649e-06
-2.0932149e-06
-1.4920828e-06
-2.4180512e-06
-1.0813642e-06
-2.9356028e-06
-5.0875284e-07
-3.5308356e-06
4.3600346e-09
-3.8770888e-06
3.2372835e-08
-3.5316025e-06
-9.4282086e-07
-2.4841952e-06
-3.3977259e-06
-2.4630583e-07
-1.1559083e-06
-2.6924072e-06
-9.9427621e-08
-3.66302e-06
2.4742399e-07
-3.633197e-06
-9.7580943e-08
-3.1190528e-06
-6.9188575e-07
-2.5457519e-06
-1.2087876e-06
-2.1344506e-06
-1.5331253e-06
-1.9137274e-06
-1.6946228e-06
-1.821376e-06
-1.7627235e-06
-1.792444e-06
-1.7903131e-06
-1.7942126e-06
-1.7982058e-06
-1.8021252e-06
-1.8060312e-06
-1.8099385e-06
-1.8138499e-06
-1.8177674e-06
-1.8216928e-06
-1.8256402e-06
-1.8296881e-06
-1.8337572e-06
-1.8304435e-06
-1.8619757e-06
-1.8019517e-06
-1.9301569e-06
-1.7102211e-06
-2.0912307e-06
-1.4897347e-06
-2.4155442e-06
-1.0785736e-06
-2.9326227e-06
-5.0553955e-07
-3.5274428e-06
7.9374942e-09
-3.8733613e-06
3.6227015e-08
-3.5276402e-06
-9.3870159e-07
-2.479907e-06
-3.3933717e-06
-2.5025675e-07
-1.1597842e-06
-2.6961309e-06
-1.0300378e-07
-3.6665043e-06
2.4405003e-07
-3.6364417e-06
-1.0066791e-07
-3.1219838e-06
-6.9462006e-07
-2.548324e-06
-1.2111135e-06
-2.1366555e-06
-1.5349865e-06
-1.9156326e-06
-1.6958312e-06
-1.8232794e-06
-1.7634594e-06
-1.7940143e-06
-1.7910396e-06
-1.7948659e-06
-1.7987243e-06
-1.8025017e-06
-1.8062699e-06
-1.8100423e-06
-1.8138188e-06
-1.8175992e-06
-1.8213826e-06
-1.8251804e-06
-1.8290779e-06
-1.8330844e-06
-1.8290292e-06
-1.8608815e-06
-1.800443e-06
-1.9287923e-06
-1.7083837e-06
-2.0893281e-06
-1.487516e-06
-2.4131726e-06
-1.0759504e-06
-2.929824e-06
-5.0253519e-07
-3.5242719e-06
1.1268515e-08
-3.8698901e-06
3.9805608e-08
-3.5239611e-06
-9.3489246e-07
-2.475953e-06
-3.3893633e-06
-2.5389044e-07
-1.1633598e-06
-2.6995787e-06
-1.0633768e-07
-3.6697467e-06
2.4089742e-07
-3.6394659e-06
-1.0355769e-07
-3.1247229e-06
-6.9718633e-07
-2.5507358e-06
-1.2133063e-06
-2.1387256e-06
-1.536757e-06
-1.9173977e-06
-1.6970077e-06
-1.8248419e-06
-1.7644363e-06
-1.7955547e-06
-1.791739e-06
-1.7955125e-06
-1.799232e-06
-1.8028682e-06
-1.8065001e-06
-1.8101386e-06
-1.8137815e-06
-1.8174265e-06
-1.8210701e-06
-1.8247212e-06
-1.8284724e-06
-1.832429e-06
-1.8276651e-06
-1.8599096e-06
-1.7989689e-06
-1.9274256e-06
-1.7066385e-06
-2.0875062e-06
-1.4854196e-06
-2.4109311e-06
-1.0734877e-06
-2.9271976e-06
-4.9973085e-07
-3.52131e-06
1.4364182e-08
-3.8666589e-06
4.3121795e-08
-3.5205475e-06
-9.3137988e-07
-2.4723189e-06
-3.3856878e-06
-2.5721738e-07
-1.1666485e-06
-2.7027621e-06
-1.0944875e-07
-3.6727575e-06
2.3794899e-07
-3.642277e-06
-1.0626328e-07
-3.1272757e-06
-6.9959356e-07
-2.5529923e-06
-1.2153718e-06
-2.1406686e-06
-1.5384415e-06
-1.919053e-06
-1.6982235e-06
-1.8262526e-06
-1.7654534e-06
-1.7969644e-06
-1.7923966e-06
-1.7961385e-06
-1.7997243e-06
-1.8032223e-06
-1.8067206e-06
-1.8102278e-06
-1.8137393e-06
-1.8172514e-06
-1.8207586e-06
-1.8242671e-06
-1.8278768e-06
-1.8318029e-06
-1.8263715e-06
-1.8590057e-06
-1.797533e-06
-1.9260949e-06
-1.7049782e-06
-2.0857671e-06
-1.4834413e-06
-2.4088146e-06
-1.0711803e-06
-2.9247336e-06
-4.9711955e-07
-3.5185425e-06
1.7233165e-08
-3.8636493e-06
4.6186684e-08
-3.5173796e-06
-9.2815233e-07
-2.4689919e-06
-3.3823345e-06
-2.6024504e-07
-1.1696634e-06
-2.7056903e-06
-1.1236143e-07
-3.6755442e-06
2.3518337e-07
-3.6448782e-06
-1.088005e-07
-3.1296449e-06
-7.0185247e-07
-2.5550967e-06
-1.2173167e-06
-2.1424909e-06
-1.540043e-06
-1.9206116e-06
-1.6994341e-06
-1.8276266e-06
-1.7663178e-06
-1.7983e-06
-1.793019e-06
-1.7967432e-06
-1.8001982e-06
-1.8035621e-06
-1.8069305e-06
-1.8103094e-06
-1.8136931e-06
-1.817076e-06
-1.8204509e-06
-1.8238214e-06
-1.8272938e-06
-1.831206e-06
-1.8251266e-06
-1.8581811e-06
-1.7961484e-06
-1.9248203e-06
-1.7034006e-06
-2.0841125e-06
-1.4815786e-06
-2.4068173e-06
-1.0690245e-06
-2.9224202e-06
-4.9469741e-07
-3.5159522e-06
1.9879973e-08
-3.860839e-06
4.9008085e-08
-3.5144333e-06
-9.2520099e-07
-2.4659602e-06
-3.3792959e-06
-2.629775e-07
-1.1724183e-06
-2.7083688e-06
-1.1510919e-07
-3.6781087e-06
2.3257163e-07
-3.6472657e-06
-1.1119045e-07
-3.1318273e-06
-7.0397691e-07
-2.5570488e-06
-1.2191486e-06
-2.1441943e-06
-1.5415613e-06
-1.9220796e-06
-1.7006008e-06
-1.8289517e-06
-1.7670952e-06
-1.7995457e-06
-1.7935956e-06
-1.7973227e-06
-1.8006515e-06
-1.8038856e-06
-1.8071285e-06
-1.8103838e-06
-1.8136439e-06
-1.816902e-06
-1.8201493e-06
-1.8233867e-06
-1.8267265e-06
-1.8306433e-06
-1.8239342e-06
-1.8574204e-06
-1.7948186e-06
-1.9236098e-06
-1.7019059e-06
-2.0825425e-06
-1.4798306e-06
-2.4049313e-06
-1.06702e-06
-2.9202423e-06
-4.924661e-07
-3.5135165e-06
2.2301548e-08
-3.8581985e-06
5.1587476e-08
-3.5116762e-06
-9.2252144e-07
-2.4632126e-06
-3.3765678e-06
-2.6541471e-07
-1.1749293e-06
-2.7107967e-06
-1.1774122e-07
-3.6804417e-06
2.3007185e-07
-3.6494218e-06
-1.1346393e-07
-3.1338099e-06
-7.0598684e-07
-2.5588423e-06
-1.2208777e-06
-2.1457769e-06
-1.5429972e-06
-1.9234575e-06
-1.7017053e-06
-1.8302144e-06
-1.767782e-06
-1.8007287e-06
-1.7941271e-06
-1.7978756e-06
-1.8010826e-06
-1.8041924e-06
-1.8073149e-06
-1.8104514e-06
-1.8135926e-06
-1.8167307e-06
-1.8198556e-06
-1.8229654e-06
-1.8261776e-06
-1.8301183e-06
-1.8227978e-06
-1.8567129e-06
-1.7935454e-06
-1.9224656e-06
-1.7004951e-06
-2.0810541e-06
-1.4781989e-06
-2.4031452e-06
-1.0651717e-06
-2.918178e-06
-4.9043706e-07
-3.5112028e-06
2.4481101e-08
-3.8556858e-06
5.3914558e-08
-3.5090609e-06
-9.2011626e-07
-2.460737e-06
-3.3741499e-06
-2.6755405e-07
-1.1772192e-06
-2.7129622e-06
-1.2033306e-07
-3.6825129e-06
2.2762012e-07
-3.6513045e-06
-1.1566944e-07
-3.1355616e-06
-7.079139e-07
-2.5604608e-06
-1.2225204e-06
-2.1472318e-06
-1.544355e-06
-1.9247429e-06
-1.7027421e-06
-1.8314134e-06
-1.7684024e-06
-1.8018413e-06
-1.7946101e-06
-1.7983999e-06
-1.8014902e-06
-1.8044814e-06
-1.8074892e-06
-1.8105121e-06
-1.8135397e-06
-1.8165634e-06
-1.8195715e-06
-1.8225595e-06
-1.8256489e-06
-1.8296314e-06
-1.8217124e-06
-1.8560603e-06
-1.7923356e-06
-1.9213864e-06
-1.6991707e-06
-2.0796406e-06
-1.4766892e-06
-2.4014411e-06
-1.0634941e-06
-2.9161937e-06
-4.8863891e-07
-3.5089605e-06
2.6377179e-08
-3.8532374e-06
5.5956349e-08
-3.5065154e-06
-9.1799995e-07
-2.4585173e-06
-3.3720429e-06
-2.6939567e-07
-1.1793247e-06
-2.7148337e-06
-1.2300284e-07
-3.6842512e-06
2.2511645e-07
-3.6528286e-06
-1.1788697e-07
-3.1370214e-06
-7.0981101e-07
-2.5618708e-06
-1.2241045e-06
-2.1485444e-06
-1.5456454e-06
-1.92593e-06
-1.7037134e-06
-1.8325408e-06
-1.7689614e-06
-1.8028893e-06
-1.7950451e-06
-1.7988951e-06
-1.8018736e-06
-1.8047521e-06
-1.8076512e-06
-1.8105664e-06
-1.8134862e-06
-1.8164011e-06
-1.8192987e-06
-1.822171e-06
-1.8251428e-06
-1.8291837e-06
-1.8206831e-06
-1.8554475e-06
-1.7911973e-06
-1.9203658e-06
-1.6979379e-06
-2.0782896e-06
-1.4753149e-06
-2.3997889e-06
-1.0620183e-06
-2.9142334e-06
-4.8712993e-07
-3.5067068e-06
2.7905193e-08
-3.8507544e-06
5.7636379e-08
-3.5039274e-06
-9.1620763e-07
-2.4565261e-06
-3.3702417e-06
-2.7095875e-07
-1.1813141e-06
-2.7163457e-06
-1.2593455e-07
-3.6855088e-06
2.2240235e-07
-3.6538358e-06
-1.2025156e-07
-3.1380774e-06
-7.1176874e-07
-2.5630098e-06
-1.225678e-06
-2.1496864e-06
-1.5468884e-06
-1.9270081e-06
-1.7046276e-06
-1.8335864e-06
-1.7694708e-06
-1.8038725e-06
-1.7954335e-06
-1.7993603e-06
-1.8022322e-06
-1.8050043e-06
-1.8078009e-06
-1.8106145e-06
-1.8134325e-06
-1.816245e-06
-1.8190383e-06
-1.8218017e-06
-1.8246616e-06
-1.8287773e-06
-1.8197272e-06
-1.8548431e-06
-1.7901457e-06
-1.9193902e-06
-1.6968078e-06
-2.0769793e-06
-1.4741026e-06
-2.3981383e-06
-1.0608041e-06
-2.9122033e-06
-4.8601831e-07
-3.5043023e-06
2.8907652e-08
-3.84808e-06
5.8796266e-08
-3.5011245e-06
-9.1481084e-07
-2.4547099e-06
-3.3687121e-06
-2.7233178e-07
-1.1833068e-06
-2.7173757e-06
-1.2939672e-07
-3.6860007e-06
2.1922518e-07
-3.65405e-06
-1.2299397e-07
-3.1385351e-06
-7.1394171e-07
-2.5637669e-06
-1.2273237e-06
-2.1506067e-06
-1.5481199e-06
-1.927957e-06
-1.7055031e-06
-1.8345329e-06
-1.7699638e-06
-1.8047758e-06
-1.795776e-06
-1.7997945e-06
-1.8025654e-06
-1.8052377e-06
-1.8079383e-06
-1.8106567e-06