/*--------------------------------*- C++ -*----------------------------------*\
  =========                 |
  \\      /  F ield         | OpenFOAM: The Open Source CFD Toolbox
   \\    /   O peration     | Website:  https://openfoam.org
    \\  /    A nd           | Version:  11
     \\/     M anipulation  |
\*---------------------------------------------------------------------------*/
FoamFile
{
    format      ascii;
    class       volScalarField;
    location    "30/Air";
    object      p_rgh;
}
// * * * * * * * * * * * * * * * * * * * * * * * * * * * * * * * * * * * * * //

dimensions      [1 -1 -2 0 0 0 0];

internalField   nonuniform List<scalar> 
124340
(
-5.4539758e-11
-3.6019023e-07
-7.381933e-07
-2.5128512e-07
-9.814939e-07
-1.3140042e-07
-1.0146023e-06
-2.0150631e-07
-9.0840855e-07
-3.631853e-07
-7.7315106e-07
-5.3540273e-07
-7.0310713e-07
-6.5657777e-07
-6.8981378e-07
-7.1726331e-07
-7.1800787e-07
-7.4535934e-07
-7.3999042e-07
-7.5384489e-07
-7.5202853e-07
-7.5607067e-07
-7.5205198e-07
-7.4999448e-07
-7.4607073e-07
-7.4177069e-07
-7.3770489e-07
-7.3526882e-07
-7.3102894e-07
-7.3457481e-07
-7.3183816e-07
-7.4574297e-07
-7.4065052e-07
-7.674333e-07
-7.6655654e-07
-7.9548055e-07
-8.3457219e-07
-7.8347568e-07
-9.6374308e-07
-7.1421649e-07
-1.1369733e-06
-5.8661202e-07
-1.2969485e-06
-4.8446055e-07
-1.3679957e-06
-5.2526667e-07
-1.2465831e-06
-7.6835057e-07
-1.1460739e-06
-1.5037785e-06
-5.7197158e-08
-4.0847704e-07
-7.9414155e-07
-2.224573e-07
-1.0441577e-06
-8.6169426e-08
-1.0675051e-06
-1.6437242e-07
-9.4692503e-07
-3.4478129e-07
-7.8825636e-07
-5.3656945e-07
-7.0196581e-07
-6.6143968e-07
-6.8487403e-07
-7.1425147e-07
-7.1234223e-07
-7.4096312e-07
-7.3571122e-07
-7.5102032e-07
-7.4913701e-07
-7.5422387e-07
-7.5078751e-07
-7.491472e-07
-7.4573474e-07
-7.4190235e-07
-7.3835272e-07
-7.364008e-07
-7.3265631e-07
-7.3715141e-07
-7.3454823e-07
-7.5035179e-07
-7.424895e-07
-7.7364125e-07
-7.6970468e-07
-8.0001211e-07
-8.3049815e-07
-7.8186806e-07
-9.666025e-07
-6.9707654e-07
-1.157872e-06
-5.4833005e-07
-1.3350893e-06
-4.324422e-07
-1.4142401e-06
-4.6553626e-07
-1.2734333e-06
-7.1238378e-07
-1.0982035e-06
-1.4516046e-06
2.6634522e-09
-3.9078239e-07
-8.0316251e-07
-1.8338321e-07
-1.0886804e-06
-5.1188627e-08
-1.1090648e-06
-1.348547e-07
-9.8011481e-07
-3.2847644e-07
-8.0180708e-07
-5.367447e-07
-7.0724487e-07
-6.6066455e-07
-6.8422274e-07
-7.1196692e-07
-7.0848639e-07
-7.3714806e-07
-7.316133e-07
-7.4800713e-07
-7.4607321e-07
-7.5210632e-07
-7.4912623e-07
-7.4814829e-07
-7.4533935e-07
-7.4211932e-07
-7.3917905e-07
-7.3792222e-07
-7.3460867e-07
-7.4006328e-07
-7.3759465e-07
-7.5402214e-07
-7.4639072e-07
-7.7712345e-07
-7.7196671e-07
-8.0042859e-07
-8.3117515e-07
-7.773536e-07
-9.702692e-07
-6.8071717e-07
-1.1746835e-06
-5.1507819e-07
-1.3654081e-06
-3.919806e-07
-1.4526047e-06
-4.2725451e-07
-1.3069623e-06
-7.0079744e-07
-1.1159812e-06
-1.5119242e-06
2.5022546e-08
-4.0359965e-07
-8.1592808e-07
-1.6755505e-07
-1.1181139e-06
-3.03696e-08
-1.1394824e-06
-1.1572826e-07
-1.0059146e-06
-3.1618904e-07
-8.1675168e-07
-5.3229704e-07
-7.1404588e-07
-6.5769515e-07
-6.8639144e-07
-7.0978097e-07
-7.0671569e-07
-7.3364816e-07
-7.2826439e-07
-7.4544598e-07
-7.4349326e-07
-7.4990457e-07
-7.4752602e-07
-7.4711481e-07
-7.4494377e-07
-7.4237757e-07
-7.4008267e-07
-7.3941467e-07
-7.3672251e-07
-7.4266553e-07
-7.4064534e-07
-7.5672257e-07
-7.498597e-07
-7.7865031e-07
-7.7445775e-07
-7.9808599e-07
-8.3429833e-07
-7.7021183e-07
-9.7565381e-07
-6.6443184e-07
-1.1876485e-06
-4.8942898e-07
-1.3849417e-06
-3.6229489e-07
-1.4751485e-06
-3.9824032e-07
-1.3222811e-06
-6.8621118e-07
-1.1020156e-06
-1.5335788e-06
3.4382549e-08
-4.0603944e-07
-8.256019e-07
-1.5765627e-07
-1.1393111e-06
-1.6579126e-08
-1.1631219e-06
-1.0277788e-07
-1.0277657e-06
-3.0666842e-07
-8.3327578e-07
-5.2400982e-07
-7.2163803e-07
-6.5345009e-07
-6.8997127e-07
-7.0761609e-07
-7.0621988e-07
-7.3043741e-07
-7.26175e-07
-7.4271608e-07
-7.4120659e-07
-7.4767989e-07
-7.4600786e-07
-7.4608163e-07
-7.4456089e-07
-7.4266536e-07
-7.4102897e-07
-7.4086924e-07
-7.3889046e-07
-7.4495914e-07
-7.4351985e-07
-7.58848e-07
-7.5321862e-07
-7.7909519e-07
-7.7699025e-07
-7.9441292e-07
-8.3879326e-07
-7.6134076e-07
-9.8322594e-07
-6.4807695e-07
-1.1976311e-06
-4.677697e-07
-1.3979123e-06
-3.3895345e-07
-1.4895534e-06
-3.7880357e-07
-1.3299672e-06
-6.7529337e-07
-1.0985732e-06
-1.5420917e-06
3.326324e-08
-4.1062993e-07
-8.3614956e-07
-1.5218916e-07
-1.1567314e-06
-7.7833211e-09
-1.1824186e-06
-9.3923405e-08
-1.0462952e-06
-2.9741622e-07
-8.515229e-07
-5.1477621e-07
-7.3050812e-07
-6.4859523e-07
-6.9438505e-07
-7.0519776e-07
-7.0638606e-07
-7.2744269e-07
-7.2476912e-07
-7.4019572e-07
-7.3910926e-07
-7.4543582e-07
-7.4455282e-07
-7.450698e-07
-7.4419977e-07
-7.4298175e-07
-7.4199917e-07
-7.422942e-07
-7.4107804e-07
-7.4705768e-07
-7.4627141e-07
-7.6054493e-07
-7.5653598e-07
-7.7901765e-07
-7.8027657e-07
-7.8957828e-07
-8.4406695e-07
-7.5084849e-07
-9.9118743e-07
-6.2945948e-07
-1.207201e-06
-4.4990855e-07
-1.4065481e-06
-3.195312e-07
-1.4979923e-06
-3.6224835e-07
-1.333664e-06
-6.6414355e-07
-1.0930229e-06
-1.540088e-06
2.7887081e-08
-4.1596973e-07
-8.4632133e-07
-1.4991861e-07
-1.1713052e-06
-2.9025329e-09
-1.1983675e-06
-8.8486461e-08
-1.0628435e-06
-2.9038364e-07
-8.6766118e-07
-5.0604479e-07
-7.4063249e-07
-6.4341173e-07
-6.9966455e-07
-7.0208492e-07
-7.0692036e-07
-7.2470793e-07
-7.240832e-07
-7.3790243e-07
-7.3697773e-07
-7.4314656e-07
-7.431639e-07
-7.4410955e-07
-7.4387229e-07
-7.4331561e-07
-7.4297046e-07
-7.4368722e-07
-7.4326282e-07
-7.4898852e-07
-7.4857414e-07
-7.6218065e-07
-7.5982994e-07
-7.7865683e-07
-7.8429711e-07
-7.8403796e-07
-8.4986063e-07
-7.3873787e-07
-1.0012741e-06
-6.1199261e-07
-1.2132205e-06
-4.341585e-07
-1.4115713e-06
-3.0308906e-07
-1.5021017e-06
-3.4794655e-07
-1.3343299e-06
-6.5341607e-07
-1.0868964e-06
-1.5339346e-06
2.0833921e-08
-4.2144818e-07
-8.5626501e-07
-1.5031872e-07
-1.1837701e-06
-1.0279903e-09
-1.2117357e-06
-8.5428803e-08
-1.0761527e-06
-2.8261832e-07
-8.8515424e-07
-4.9730727e-07
-7.5226799e-07
-6.3829063e-07
-7.052266e-07
-6.9897769e-07
-7.0762029e-07
-7.2230576e-07
-7.2363262e-07
-7.3531975e-07
-7.3550711e-07
-7.4104036e-07
-7.418896e-07
-7.4323565e-07
-7.4359136e-07
-7.4366334e-07
-7.4391986e-07
-7.4504343e-07
-7.4543319e-07
-7.5084225e-07
-7.5093616e-07
-7.6325718e-07
-7.629014e-07
-7.7817722e-07
-7.8842298e-07
-7.7845433e-07
-8.5623043e-07
-7.2890206e-07
-1.0081637e-06
-5.9609091e-07
-1.2170111e-06
-4.2041494e-07
-1.413885e-06
-2.8902269e-07
-1.5030505e-06
-3.3535203e-07
-1.3323703e-06
-6.425912e-07
-1.0810909e-06
-1.526323e-06
1.2987146e-08
-4.2771363e-07
-8.6546972e-07
-1.5253033e-07
-1.1945834e-06
-1.390284e-09
-1.2231999e-06
-8.4366053e-08
-1.0877088e-06
-2.7787784e-07
-9.0132883e-07
-4.8784844e-07
-7.6456147e-07
-6.3314472e-07
-7.107786e-07
-6.9580305e-07
-7.0887909e-07
-7.2027302e-07
-7.2317013e-07
-7.3279305e-07
-7.3439204e-07
-7.3923788e-07
-7.4076588e-07
-7.424705e-07
-7.4336275e-07
-7.440085e-07
-7.448213e-07
-7.4633884e-07
-7.4753045e-07
-7.5265877e-07
-7.5319519e-07
-7.6396426e-07
-7.6569958e-07
-7.7703187e-07
-7.9318412e-07
-7.7291328e-07
-8.6309711e-07
-7.1921427e-07
-1.0134162e-06
-5.8207187e-07
-1.2189205e-06
-4.0815468e-07
-1.4141396e-06
-2.7674327e-07
-1.5017491e-06
-3.2403742e-07
-1.3288766e-06
-6.3257229e-07
-1.0743744e-06
-1.5179096e-06
5.0225315e-09
-4.3434263e-07
-8.7414885e-07
-1.5615579e-07
-1.2041233e-06
-3.3640007e-09
-1.2332321e-06
-8.482412e-08
-1.0979546e-06
-2.7579542e-07
-9.1654159e-07
-4.8105699e-07
-7.740871e-07
-6.2816698e-07
-7.1626994e-07
-6.9243019e-07
-7.1027254e-07
-7.1861286e-07
-7.2262644e-07
-7.3063233e-07
-7.333e-07
-7.3775038e-07
-7.3981012e-07
-7.418221e-07
-7.4318675e-07
-7.4434769e-07
-7.4565445e-07
-7.4753519e-07
-7.4939319e-07
-7.5402121e-07
-7.5571076e-07
-7.6459968e-07
-7.6813199e-07
-7.7577471e-07
-7.9790848e-07
-7.6734489e-07
-8.7060186e-07
-7.0863378e-07
-1.017508e-06
-5.6969276e-07
-1.2194476e-06
-3.9709209e-07
-1.4128265e-06
-2.6587212e-07
-1.4988429e-06
-3.1384705e-07
-1.3242914e-06
-6.2320994e-07
-1.0671091e-06
-1.5092535e-06
-2.7499837e-09
-4.410431e-07
-8.8248397e-07
-1.6102181e-07
-1.2125333e-06
-6.4423804e-09
-1.242173e-06
-8.6482011e-08
-1.1073074e-06
-2.7555138e-07
-9.2930625e-07
-4.7638409e-07
-7.8312559e-07
-6.2305437e-07
-7.218074e-07
-6.8918787e-07
-7.1190136e-07
-7.170079e-07
-7.2198588e-07
-7.2885496e-07
-7.3225247e-07
-7.3654783e-07
-7.3900382e-07
-7.4128022e-07
-7.430569e-07
-7.4467077e-07
-7.4640786e-07
-7.4860179e-07
-7.5093368e-07
-7.5519776e-07
-7.5804126e-07
-7.6542155e-07
-7.7056886e-07
-7.7413159e-07
-8.0204959e-07
-7.6158442e-07
-8.7614591e-07
-6.9898249e-07
-1.0208877e-06
-5.587661e-07
-1.2190164e-06
-3.8711744e-07
-1.4103621e-06
-2.5611911e-07
-1.4948325e-06
-3.0456199e-07
-1.3189264e-06
-6.1439521e-07
-1.0595846e-06
-1.5006395e-06
-1.0247879e-08
-4.4773341e-07
-8.9048067e-07
-1.6665586e-07
-1.2201541e-06
-1.0278404e-08
-1.25025e-06
-8.9040991e-08
-1.1158456e-06
-2.7640584e-07
-9.4014258e-07
-4.7305655e-07
-7.9249977e-07
-6.1778216e-07
-7.2738693e-07
-6.8615044e-07
-7.1365793e-07
-7.1556649e-07
-7.2133382e-07
-7.275191e-07
-7.3143134e-07
-7.3545329e-07
-7.3829076e-07
-7.4082663e-07
-7.4296608e-07
-7.4497304e-07
-7.4708313e-07
-7.4955206e-07
-7.5216349e-07
-7.5639053e-07
-7.5990231e-07
-7.6630152e-07
-7.7275828e-07
-7.7235962e-07
-8.0575027e-07
-7.5573585e-07
-8.8108594e-07
-6.8970712e-07
-1.0238357e-06
-5.4910342e-07
-1.2178226e-06
-3.7816561e-07
-1.4070872e-06
-2.4728952e-07
-1.4901013e-06
-2.9602237e-07
-1.3130622e-06
-6.0609297e-07
-1.0519597e-06
-1.4922023e-06
-1.7471882e-08
-4.5436316e-07
-8.9814144e-07
-1.7271733e-07
-1.2271679e-06
-1.4600507e-08
-1.2576061e-06
-9.2226461e-08
-1.1235421e-06
-2.7790304e-07
-9.4939954e-07
-4.7064313e-07
-8.0280943e-07
-6.1198163e-07
-7.3274063e-07
-6.8343826e-07
-7.1548092e-07
-7.142774e-07
-7.2087845e-07
-7.2656782e-07
-7.3069851e-07
-7.3460334e-07
-7.3770321e-07
-7.4046355e-07
-7.4291064e-07
-7.4524919e-07
-7.4767275e-07
-7.5038692e-07
-7.5337982e-07
-7.5732945e-07
-7.6127074e-07
-7.6695048e-07
-7.7479784e-07
-7.705621e-07
-8.0887923e-07
-7.4989151e-07
-8.8591091e-07
-6.8067628e-07
-1.0262198e-06
-5.4061981e-07
-1.2159659e-06
-3.7017045e-07
-1.4032715e-06
-2.3924573e-07
-1.4849334e-06
-2.8811193e-07
-1.3069131e-06
-5.9823315e-07
-1.044399e-06
-1.4840334e-06
-2.4458351e-08
-4.6087689e-07
-9.0549613e-07
-1.7898115e-07
-1.2336464e-06
-1.9189266e-08
-1.2643352e-06
-9.5810147e-08
-1.1303903e-06
-2.7979049e-07
-9.5708421e-07
-4.6828251e-07
-8.1196906e-07
-6.0831631e-07
-7.3814122e-07
-6.8120625e-07
-7.1740225e-07
-7.1318856e-07
-7.2065046e-07
-7.2592568e-07
-7.3010056e-07
-7.339608e-07
-7.3723943e-07
-7.4018972e-07
-7.4288822e-07
-7.4549958e-07
-7.4818322e-07
-7.51105e-07
-7.5433331e-07
-7.5820333e-07
-7.6228679e-07
-7.6739369e-07
-7.7657912e-07
-7.687866e-07
-8.1150328e-07
-7.4512845e-07
-8.8921255e-07
-6.7187476e-07
-1.0277275e-06
-5.3353019e-07
-1.2136065e-06
-3.6303574e-07
-1.3991201e-06
-2.3187984e-07
-1.4795381e-06
-2.8074807e-07
-1.3006469e-06
-5.9076094e-07
-1.0370277e-06
-1.4761867e-06
-3.1310587e-08
-4.6746382e-07
-9.1238511e-07
-1.85205e-07
-1.2396266e-06
-2.3880436e-08
-1.2705126e-06
-9.9621766e-08
-1.1364722e-06
-2.8203688e-07
-9.6341328e-07
-4.6630901e-07
-8.203965e-07
-6.0460533e-07
-7.4426011e-07
-6.7975688e-07
-7.1941925e-07
-7.1232147e-07
-7.2063828e-07
-7.2551714e-07
-7.2965444e-07
-7.3349338e-07
-7.3689066e-07
-7.3999509e-07
-7.4289609e-07
-7.4572354e-07
-7.4861399e-07
-7.5170445e-07
-7.5508636e-07
-7.5894738e-07
-7.6306763e-07
-7.6761219e-07
-7.7805579e-07
-7.6703747e-07
-8.1369279e-07
-7.4106412e-07
-8.9149099e-07
-6.6420381e-07
-1.0277311e-06
-5.2751393e-07
-1.2108698e-06
-3.5663554e-07
-1.3947835e-06
-2.2510347e-07
-1.4740679e-06
-2.7387594e-07
-1.2944224e-06
-5.8367519e-07
-1.0298666e-06
-1.4686662e-06
-3.7938163e-08
-4.7385062e-07
-9.1899443e-07
-1.9137118e-07
-1.2451756e-06
-2.8564944e-08
-1.276208e-06
-1.0355024e-07
-1.1419438e-06
-2.8465335e-07
-9.6879246e-07
-4.6584992e-07
-8.2792577e-07
-6.0240934e-07
-7.4885282e-07
-6.7855475e-07
-7.2142913e-07
-7.1165123e-07
-7.2082005e-07
-7.2529125e-07
-7.2935538e-07
-7.331758e-07
-7.3664941e-07
-7.3987002e-07
-7.429245e-07
-7.4592079e-07
-7.4897209e-07
-7.521907e-07
-7.5567046e-07
-7.5953488e-07
-7.6364273e-07
-7.6761691e-07
-7.7921413e-07
-7.6533947e-07
-8.1552478e-07
-7.3734472e-07
-8.9258019e-07
-6.5807842e-07
-1.0266126e-06
-5.222008e-07
-1.2078348e-06
-3.5083778e-07
-1.3903684e-06
-2.1884235e-07
-1.4686316e-06
-2.6744957e-07
-1.2883303e-06
-5.7696112e-07
-1.0229686e-06
-1.4614878e-06
-4.4332998e-08
-4.8005795e-07
-9.2527486e-07
-1.9739604e-07
-1.2503432e-06
-3.3170011e-08
-1.2814838e-06
-1.0751584e-07
-1.1469316e-06
-2.8754378e-07
-9.7354203e-07
-4.668413e-07
-8.3450422e-07
-6.0089945e-07
-7.5258166e-07
-6.7752616e-07
-7.2336456e-07
-7.1115716e-07
-7.2117322e-07
-7.2521542e-07
-7.2919203e-07
-7.3298824e-07
-7.365042e-07
-7.3980576e-07
-7.4297157e-07
-7.4609146e-07
-7.4925932e-07
-7.5256799e-07
-7.5610441e-07
-7.5996333e-07
-7.6402955e-07
-7.6741793e-07
-7.800446e-07
-7.6367172e-07
-8.1654576e-07
-7.3407597e-07
-8.9294713e-07
-6.5317912e-07
-1.0248946e-06
-5.1743978e-07
-1.2046118e-06
-3.4554408e-07
-1.3859577e-06
-2.1303572e-07
-1.4633058e-06
-2.6142758e-07
-1.2824194e-06
-5.706032e-07
-1.016385e-06
-1.4546731e-06
-5.0475263e-08
-4.8604459e-07
-9.3124501e-07
-2.0322501e-07
-1.2551714e-06
-3.7646842e-08
-1.2863906e-06
-1.1145425e-07
-1.1515194e-06
-2.9059537e-07
-9.778381e-07
-4.6861643e-07
-8.3971422e-07
-6.0044285e-07
-7.5596113e-07
-6.7661095e-07
-7.2526834e-07
-7.1083074e-07
-7.2168443e-07
-7.2526718e-07
-7.2915111e-07
-7.3291338e-07
-7.3644327e-07
-7.3979338e-07
-7.4303294e-07
-7.4623644e-07
-7.4948149e-07
-7.5284486e-07
-7.5640321e-07
-7.6023895e-07
-7.6424682e-07
-7.6703493e-07
-7.8056531e-07
-7.6201631e-07
-8.171475e-07
-7.3105748e-07
-8.9278597e-07
-6.49037e-07
-1.0228683e-06
-5.1315277e-07
-1.2013076e-06
-3.4068439e-07
-1.3816168e-06
-2.0763438e-07
-1.4581429e-06
-2.5577506e-07
-1.2767283e-06
-5.6459464e-07
-1.0101345e-06
-1.4482321e-06
-5.6346467e-08
-4.9178012e-07
-9.3691523e-07
-2.0882056e-07
-1.2596951e-06
-4.1963047e-08
-1.2909682e-06
-1.1531283e-07
-1.1557603e-06
-2.9370267e-07
-9.8174198e-07
-4.7069056e-07
-8.4387598e-07
-6.0048728e-07
-7.5959958e-07
-6.7575312e-07
-7.2719632e-07
-7.1067497e-07
-7.223376e-07
-7.2542943e-07
-7.2921946e-07
-7.3293588e-07
-7.3645512e-07
-7.3982477e-07
-7.4310495e-07
-7.4635709e-07
-7.4964489e-07
-7.5303112e-07
-7.5658205e-07
-7.6037475e-07
-7.6431427e-07
-7.6649135e-07
-7.8078618e-07
-7.60299e-07
-8.1737782e-07
-7.2807862e-07
-8.924349e-07
-6.4551676e-07
-1.0207126e-06
-5.0928581e-07
-1.1980063e-06
-3.3620445e-07
-1.3773955e-06
-2.0259844e-07
-1.4531779e-06
-2.5046255e-07
-1.2712766e-06
-5.5892523e-07
-1.004233e-06
-1.442173e-06
-6.1933846e-08
-4.972479e-07
-9.4228746e-07
-2.1415616e-07
-1.2639425e-06
-4.6097964e-08
-1.2952476e-06
-1.1905114e-07
-1.1596913e-06
-2.9678441e-07
-9.8529373e-07
-4.7287892e-07
-8.4745388e-07
-6.0095862e-07
-7.6267306e-07
-6.7549896e-07
-7.2909543e-07
-7.1069912e-07
-7.2311835e-07
-7.2568807e-07
-7.2938435e-07
-7.3304177e-07
-7.3652877e-07
-7.3989245e-07
-7.431846e-07
-7.4645529e-07
-7.4975623e-07
-7.5313812e-07
-7.5665671e-07
-7.6038814e-07
-7.6425555e-07
-7.6582015e-07
-7.8077365e-07
-7.5862887e-07
-8.1706876e-07
-7.2502983e-07
-8.9202777e-07
-6.425938e-07
-1.0185244e-06
-5.0578046e-07
-1.1947653e-06
-3.3205773e-07
-1.3733279e-06
-1.9789476e-07
-1.4484339e-06
-2.4546558e-07
-1.2660666e-06
-5.5357442e-07
-9.9870827e-07
-1.4365042e-06
-6.7227255e-08
-5.0243427e-07
-9.4736414e-07
-2.1921811e-07
-1.2679375e-06
-5.0039731e-08
-1.2992541e-06
-1.2264152e-07
-1.1633434e-06
-2.9978584e-07
-9.8852598e-07
-4.750752e-07
-8.5055239e-07
-6.0156334e-07
-7.6561018e-07
-6.7559546e-07
-7.3100643e-07
-7.108949e-07
-7.2400709e-07
-7.2602841e-07
-7.2963207e-07
-7.3321758e-07
-7.3665369e-07
-7.3998953e-07
-7.4326928e-07
-7.4653306e-07
-7.4982227e-07
-7.5317707e-07
-7.5664369e-07
-7.6029913e-07
-7.6409744e-07
-7.6506153e-07
-7.8060214e-07
-7.5695545e-07
-8.1659685e-07
-7.2226226e-07
-8.9120585e-07
-6.399889e-07
-1.016302e-06
-5.0255964e-07
-1.1916149e-06
-3.2820244e-07
-1.3694347e-06
-1.9349558e-07
-1.4439246e-06
-2.4076772e-07
-1.2611166e-06
-5.4853832e-07
-9.9353791e-07
-1.4312079e-06
-7.2219816e-08
-5.0732884e-07
-9.5214957e-07
-2.2400157e-07
-1.2716994e-06
-5.3783358e-08
-1.3030095e-06
-1.2606824e-07
-1.166745e-06
-3.0267486e-07
-9.914764e-07
-4.7720622e-07
-8.5311307e-07
-6.0208427e-07
-7.6861819e-07
-6.7596069e-07
-7.3305289e-07
-7.1125828e-07
-7.2497538e-07
-7.2643225e-07
-7.2994705e-07
-7.3344959e-07
-7.3681957e-07
-7.4010954e-07
-7.4335669e-07
-7.465925e-07
-7.4984957e-07
-7.5315907e-07
-7.5655892e-07
-7.6012854e-07
-7.6386729e-07
-7.6425958e-07
-7.8033466e-07
-7.5533478e-07
-8.1610072e-07
-7.1968558e-07
-8.9002741e-07
-6.3756482e-07
-1.0140494e-06
-4.9955623e-07
-1.1885688e-06
-3.2460225e-07
-1.3657266e-06
-1.8937767e-07
-1.4396576e-06
-2.3635714e-07
-1.2564434e-06
-5.4381302e-07
-9.8869537e-07
-1.4262587e-06
-7.691115e-08
-5.1193203e-07
-9.5664672e-07
-2.2850362e-07
-1.2752435e-06
-5.7328828e-08
-1.3065332e-06
-1.2932533e-07
-1.1699241e-06
-3.0544166e-07
-9.942019e-07
-4.792896e-07
-8.5539032e-07
-6.0294645e-07
-7.7133999e-07
-6.7659794e-07
-7.3491152e-07
-7.117014e-07
-7.259756e-07
-7.2687701e-07
-7.3031246e-07
-7.3372417e-07
-7.370165e-07
-7.4024641e-07
-7.4344474e-07
-7.466356e-07
-7.4984422e-07
-7.5309422e-07
-7.5641622e-07
-7.5989319e-07
-7.6358596e-07
-7.6343179e-07
-7.800067e-07
-7.5387505e-07
-8.1558962e-07
-7.1726871e-07
-8.8853567e-07
-6.3524609e-07
-1.011787e-06
-4.9672606e-07
-1.1856361e-06
-3.2122855e-07
-1.3622084e-06
-1.8552173e-07
-1.435635e-06
-2.3222289e-07
-1.2520518e-06
-5.3938848e-07
-9.8416392e-07
-1.4216352e-06
-8.1303687e-08
-5.1624647e-07
-9.608608e-07
-2.3272581e-07
-1.2785827e-06
-6.0679366e-08
-1.3098423e-06
-1.3241334e-07
-1.1729063e-06
-3.0808894e-07
-9.9675687e-07
-4.8135182e-07
-8.5752915e-07
-6.0411026e-07
-7.7386813e-07
-6.7721343e-07
-7.366645e-07
-7.1216913e-07
-7.2698356e-07
-7.273418e-07
-7.307128e-07
-7.3402929e-07
-7.3723585e-07
-7.4039489e-07
-7.435317e-07
-7.4666412e-07
-7.4981135e-07
-7.529907e-07
-7.5622632e-07
-7.5960531e-07
-7.6326639e-07
-7.6258463e-07
-7.7962371e-07
-7.5251109e-07
-8.149052e-07
-7.1514373e-07
-8.8690666e-07
-6.3302041e-07
-1.0095479e-06
-4.9404605e-07
-1.1828249e-06
-3.1806063e-07
-1.3588806e-06
-1.8191177e-07
-1.4318547e-06
-2.2835365e-07
-1.2479391e-06
-5.3525284e-07
-9.7992956e-07
-1.4173199e-06
-8.5401492e-08
-5.2027624e-07
-9.6479874e-07
-2.3667369e-07
-1.2817277e-06
-6.3839983e-08
-1.3129514e-06
-1.3533602e-07
-1.1757123e-06
-3.1062087e-07
-9.9917792e-07
-4.833964e-07
-8.5959343e-07
-6.0553328e-07
-7.7627161e-07
-6.7773486e-07
-7.3824978e-07
-7.126391e-07
-7.2797893e-07
-7.2781065e-07
-7.3113596e-07
-7.3435528e-07
-7.3747061e-07
-7.4055075e-07
-7.4361615e-07
-7.4667953e-07
-7.4975512e-07
-7.5285498e-07
-7.5599742e-07
-7.5927344e-07
-7.629161e-07
-7.6172141e-07
-7.7919064e-07
-7.5120797e-07
-8.140915e-07
-7.1323815e-07
-8.8524656e-07
-6.3089047e-07
-1.0073638e-06
-4.9150671e-07
-1.1801428e-06
-3.1508413e-07
-1.3557421e-06
-1.7853421e-07
-1.4283119e-06
-2.2473842e-07
-1.2440986e-06
-5.3139433e-07
-9.7597872e-07
-1.4132969e-06
-8.9210643e-08
-5.2402744e-07
-9.6846834e-07
-2.4035483e-07
-1.2846877e-06
-6.6816484e-08
-1.3158726e-06
-1.380979e-07
-1.1783569e-06
-3.1303856e-07
-1.0014817e-06
-4.8540463e-07
-8.6158973e-07
-6.0707913e-07
-7.7837561e-07
-6.783862e-07
-7.3969465e-07
-7.131092e-07
-7.2895952e-07
-7.2827559e-07
-7.3157418e-07
-7.346951e-07
-7.3771544e-07
-7.4071071e-07
-7.4369711e-07
-7.4668314e-07
-7.4967904e-07
-7.526925e-07
-7.5573625e-07
-7.5890405e-07
-7.6253938e-07
-7.6084763e-07
-7.7869154e-07
-7.4994712e-07
-8.1319309e-07
-7.1149778e-07
-8.8362211e-07
-6.2886452e-07
-1.0052591e-06
-4.8910454e-07
-1.1775957e-06
-3.1228887e-07
-1.35279e-06
-1.7537724e-07
-1.4249999e-06
-2.2136633e-07
-1.2405223e-06
-5.2780198e-07
-9.7229806e-07
-1.4095518e-06
-9.273953e-08
-5.2750785e-07
-9.7187783e-07
-2.4377721e-07
-1.2874703e-06
-6.9614723e-08
-1.3186154e-06
-1.4070348e-07
-1.1808497e-06
-3.1534043e-07
-1.0036728e-06
-4.8735387e-07
-8.6350956e-07
-6.0864475e-07
-7.8023583e-07
-6.791499e-07
-7.4104475e-07
-7.1357597e-07
-7.2992323e-07
-7.2873285e-07
-7.3202315e-07
-7.3504409e-07
-7.3796654e-07
-7.4087248e-07
-7.4377406e-07
-7.466763e-07
-7.4958629e-07
-7.5250801e-07
-7.5544873e-07
-7.5850324e-07
-7.6213847e-07
-7.5997328e-07
-7.7805109e-07
-7.4879979e-07
-8.1225397e-07
-7.0987556e-07
-8.8205817e-07
-6.2694571e-07
-1.003248e-06
-4.8683732e-07
-1.1751864e-06
-3.0966677e-07
-1.3500201e-06
-1.7243036e-07
-1.4219104e-06
-2.1822617e-07
-1.237199e-06
-5.2446391e-07
-9.6887807e-07
-1.4060744e-06
-9.5997865e-08
-5.3072616e-07
-9.750356e-07
-2.4694891e-07
-1.2900818e-06
-7.2240538e-08
-1.3211877e-06
-1.431571e-07
-1.1831973e-06
-3.175244e-07
-1.0057502e-06
-4.8922458e-07
-8.6533631e-07
-6.1015831e-07
-7.8190949e-07
-6.7998579e-07
-7.423521e-07
-7.1404694e-07
-7.3087297e-07
-7.2918237e-07
-7.3248075e-07
-7.3539923e-07
-7.3822137e-07
-7.4103455e-07
-7.4384685e-07
-7.4666037e-07
-7.4947972e-07
-7.5230572e-07
-7.5514045e-07
-7.5807913e-07
-7.6172092e-07
-7.591118e-07
-7.7743269e-07
-7.4762767e-07
-8.1130049e-07
-7.0834254e-07
-8.8056068e-07
-6.2513324e-07
-1.0013374e-06
-4.8470232e-07
-1.1729152e-06
-3.0721067e-07
-1.347427e-06
-1.6968384e-07
-1.4190344e-06
-2.1530709e-07
-1.2341176e-06
-5.2136928e-07
-9.6570994e-07
-1.4028559e-06
-9.8995159e-08
-5.3369107e-07
-9.7794972e-07
-2.498781e-07
-1.292528e-06
-7.4700076e-08
-1.3235965e-06
-1.4546346e-07
-1.1854047e-06
-3.1958967e-07
-1.0077134e-06
-4.910054e-07
-8.6706214e-07
-6.1159715e-07
-7.8345242e-07
-6.8084803e-07
-7.4362771e-07
-7.1452872e-07
-7.3180684e-07
-7.296252e-07
-7.3294542e-07
-7.3575838e-07
-7.3847816e-07
-7.4119596e-07
-7.4391565e-07
-7.4663684e-07
-7.4936194e-07
-7.5208936e-07
-7.5481604e-07
-7.5763636e-07
-7.6129205e-07
-7.5825889e-07
-7.7681563e-07
-7.4643955e-07
-8.1038088e-07
-7.0689248e-07
-8.7913203e-07
-6.2342488e-07
-9.9952912e-07
-4.8269598e-07
-1.17078e-06
-3.0491368e-07
-1.3450041e-06
-1.6712841e-07
-1.4163625e-06
-2.1259907e-07
-1.2312673e-06
-5.1850842e-07
-9.6278491e-07
-1.3998877e-06
-1.0173954e-07
-5.3641042e-07
-9.806275e-07
-2.5257298e-07
-1.2948147e-06
-7.7000293e-08
-1.3258484e-06
-1.4762816e-07
-1.1874768e-06
-3.2153758e-07
-1.009563e-06
-4.9269218e-07
-8.6868643e-07
-6.1295833e-07
-7.8488951e-07
-6.8169474e-07
-7.4486145e-07
-7.1505296e-07
-7.3271671e-07
-7.3006325e-07
-7.3341464e-07
-7.361197e-07
-7.3873556e-07
-7.4135612e-07
-7.4398078e-07
-7.4660697e-07
-7.4923538e-07
-7.5186228e-07
-7.544796e-07
-7.5717917e-07
-7.6085617e-07
-7.5742356e-07
-7.7622688e-07
-7.4529722e-07
-8.0946016e-07
-7.0549711e-07
-8.7776812e-07
-6.2181814e-07
-9.9782253e-07
-4.8081403e-07
-1.1687765e-06
-3.0276885e-07
-1.3427437e-06
-1.6475522e-07
-1.4138848e-06
-2.1009279e-07
-1.2286378e-06
-5.158726e-07
-9.6009462e-07
-1.3971622e-06
-1.0423694e-07
-5.388906e-07
-9.830749e-07
-2.5504162e-07
-1.2969482e-06
-7.9149618e-08
-1.3279499e-06
-1.496581e-07
-1.1894188e-06
-3.2337178e-07
-1.0113016e-06
-4.9428537e-07
-8.7021201e-07
-6.1424957e-07
-7.862482e-07
-6.8252944e-07
-7.4602658e-07
-7.1560564e-07
-7.3359313e-07
-7.3049849e-07
-7.3388737e-07
-7.3648161e-07
-7.3899251e-07
-7.4151463e-07
-7.4404268e-07
-7.4657215e-07
-7.4910233e-07
-7.5162759e-07
-7.541349e-07
-7.5671111e-07
-7.604133e-07
-7.5658974e-07
-7.7561847e-07
-7.4414138e-07
-8.0861232e-07
-7.0419909e-07
-8.7647921e-07
-6.2031224e-07
-9.9621521e-07
-4.7905138e-07
-1.1668986e-06
-3.0076911e-07
-1.3406369e-06
-1.6255587e-07
-1.4115911e-06
-2.0777975e-07
-1.2262191e-06
-5.1345426e-07
-9.5763162e-07
-1.3946728e-06
-1.0649038e-07
-5.41136e-07
-9.8529593e-07
-2.5729202e-07
-1.2989354e-06
-8.115861e-08
-1.3299077e-06
-1.5156233e-07
-1.1912361e-06
-3.250983e-07
-1.0129328e-06
-4.9578795e-07
-8.7164143e-07
-6.1547356e-07
-7.8753899e-07
-6.8334732e-07
-7.4714478e-07
-7.1614623e-07
-7.3444113e-07
-7.309298e-07
-7.3436171e-07
-7.3684244e-07
-7.3924805e-07
-7.4167117e-07
-7.4410179e-07
-7.4653373e-07
-7.4896503e-07
-7.513884e-07
-7.5378583e-07
-7.5623652e-07
-7.5996677e-07
-7.5575762e-07
-7.7497788e-07
-7.4296404e-07
-8.0785468e-07
-7.030155e-07
-8.7526447e-07
-6.1890296e-07
-9.9470273e-07
-4.7740225e-07
-1.1651386e-06
-2.9890736e-07
-1.3386733e-06
-1.6052264e-07
-1.40947e-06
-2.0565229e-07
-1.2240009e-06
-5.1124721e-07
-9.5538953e-07
-1.392415e-06
-1.0849912e-07
-5.4314867e-07
-9.8729194e-07
-2.5933241e-07
-1.3007836e-06
-8.304122e-08
-1.3317282e-06
-1.533529e-07
-1.1929345e-06
-3.2672583e-07
-1.0144613e-06
-4.9720486e-07
-8.7297613e-07
-6.1662558e-07
-7.887279e-07
-6.8408749e-07
-7.482698e-07
-7.1669866e-07
-7.35277e-07
-7.3135916e-07
-7.348365e-07
-7.3720051e-07
-7.3950102e-07
-7.4182533e-07
-7.441585e-07
-7.4649296e-07
-7.4882564e-07
-7.5114785e-07
-7.5343667e-07
-7.5576137e-07
-7.5952441e-07
-7.5494297e-07
-7.743382e-07
-7.4187699e-07
-8.0707529e-07
-7.0190565e-07
-8.7411304e-07
-6.1758177e-07
-9.9327771e-07
-4.7586028e-07
-1.1634864e-06
-2.97177e-07
-1.3368402e-06
-1.586489e-07
-1.4075081e-06
-2.0370409e-07
-1.2219723e-06
-5.0924715e-07
-9.5336323e-07
-1.3903866e-06
-1.1025753e-07
-5.4492785e-07
-9.8906065e-07
-2.6117219e-07
-1.3025005e-06
-8.4816739e-08
-1.3334173e-06
-1.5504614e-07
-1.194519e-06
-3.2826639e-07
-1.0158918e-06
-4.9854365e-07
-8.7422101e-07
-6.1770809e-07
-7.8979835e-07
-6.8473728e-07
-7.4940963e-07
-7.1728221e-07
-7.3610245e-07
-7.3178378e-07
-7.3530915e-07
-7.3755382e-07
-7.3975004e-07
-7.4197655e-07
-7.4421307e-07
-7.4645097e-07
-7.4868622e-07
-7.5090894e-07
-7.5309161e-07
-7.5529124e-07
-7.590927e-07
-7.5415284e-07
-7.7371041e-07
-7.4085791e-07
-8.062988e-07
-7.008591e-07
-8.7301809e-07
-6.1634087e-07
-9.919306e-07
-4.7441948e-07
-1.1619289e-06
-2.9557267e-07
-1.3351214e-06
-1.5693013e-07
-1.405689e-06
-2.0193078e-07
-1.2201202e-06
-5.0745225e-07
-9.5154878e-07
-1.3885888e-06
-1.1175377e-07
-5.4646978e-07
-9.9059479e-07
-2.6282367e-07
-1.3040938e-06
-8.6512808e-08
-1.3349782e-06
-1.5666472e-07
-1.1959926e-06
-3.2973662e-07
-1.0172285e-06
-4.9981606e-07
-8.7538478e-07
-6.1873791e-07
-7.9079826e-07
-6.8542113e-07
-7.5044236e-07
-7.1785641e-07
-7.3690037e-07
-7.3219613e-07
-7.3577485e-07
-7.3789954e-07
-7.3999342e-07
-7.4212387e-07
-7.4426556e-07
-7.4640873e-07
-7.4854863e-07
-7.5067445e-07
-7.5275443e-07
-7.5483061e-07
-7.5867733e-07
-7.534011e-07
-7.7308562e-07
-7.3989405e-07
-8.0553735e-07
-6.9987296e-07
-8.71974e-07
-6.151737e-07
-9.9064914e-07
-4.7307546e-07
-1.1604495e-06
-2.9409191e-07
-1.3334955e-06
-1.5536562e-07
-1.4039899e-06
-2.0033129e-07
-1.2184276e-06
-5.0586414e-07
-9.4994327e-07
-1.3870269e-06
-1.1296806e-07
-5.4776787e-07
-9.9188028e-07
-2.6430508e-07
-1.3055696e-06
-8.8169967e-08
-1.3364095e-06
-1.5824088e-07
-1.1973534e-06
-3.3115954e-07
-1.0184722e-06
-5.0103758e-07
-8.7647277e-07
-6.1972172e-07
-7.9172965e-07
-6.8610362e-07
-7.5140386e-07
-7.1841967e-07
-7.3767038e-07
-7.3259258e-07
-7.3623015e-07
-7.3823466e-07
-7.4022937e-07
-7.4226644e-07
-7.4431592e-07
-7.4636701e-07
-7.4841442e-07
-7.5044677e-07
-7.5242839e-07
-7.5438333e-07
-7.5828233e-07
-7.5273416e-07
-7.72442e-07
-7.3899431e-07
-8.0478201e-07
-6.9893129e-07
-8.7096864e-07
-6.1407544e-07
-9.8941763e-07
-4.7182745e-07
-1.1590255e-06
-2.9273776e-07
-1.3319325e-06
-1.5396146e-07
-1.4023785e-06
-1.9890981e-07
-1.2168699e-06
-5.0448941e-07
-9.4854405e-07
-1.3857124e-06
-1.1387007e-07
-5.4881379e-07
-9.9289359e-07
-2.6564519e-07
-1.3069302e-06
-8.9848265e-08
-1.3376996e-06
-1.5982119e-07
-1.1985905e-06
-3.3256767e-07
-1.0196179e-06
-5.0222936e-07
-8.7748707e-07
-6.2067255e-07
-7.9260377e-07
-6.8678433e-07
-7.5229668e-07
-7.1897172e-07
-7.383966e-07
-7.3296865e-07
-7.3667109e-07
-7.3855673e-07
-7.4045631e-07
-7.4240352e-07
-7.4436401e-07
-7.4632636e-07
-7.4828486e-07
-7.5022776e-07
-7.5211578e-07
-7.5395111e-07
-7.5789418e-07
-7.5209232e-07
-7.7184635e-07
-7.3816398e-07
-8.0403984e-07
-6.9803283e-07
-8.6999066e-07
-6.1304663e-07
-9.8821595e-07
-4.7068143e-07
-1.1576252e-06
-2.9152293e-07
-1.3303889e-06
-1.5273558e-07
-1.4008064e-06
-1.9767888e-07
-1.2154088e-06
-5.0334147e-07
-9.4734758e-07
-1.3846641e-06
-1.1442575e-07
-5.4960167e-07
-9.9359796e-07
-2.6689046e-07
-1.3081685e-06
-9.1636535e-08
-1.3388186e-06
-1.6147362e-07
-1.1996766e-06
-3.3400788e-07
-1.0206495e-06
-5.0342024e-07
-8.7842292e-07
-6.216085e-07
-7.9342955e-07
-6.8746677e-07
-7.5311706e-07
-7.1952367e-07
-7.3904739e-07
-7.3332307e-07
-7.3709368e-07
-7.3886288e-07
-7.4067238e-07
-7.4253391e-07
-7.4440953e-07
-7.4628718e-07
-7.4816094e-07
-7.500189e-07
-7.5181855e-07
-7.5353702e-07
-7.5752066e-07
-7.5147524e-07
-7.7129413e-07
-7.3738721e-07
-8.0331319e-07
-6.9718376e-07
-8.6902685e-07
-6.1209533e-07
-9.8701653e-07
-4.6965447e-07
-1.1562027e-06
-2.904763e-07
-1.3287996e-06
-1.517259e-07
-1.3992004e-06
-1.9666449e-07
-1.2139813e-06
-5.0244347e-07
-9.4634771e-07
-1.3839125e-06
-1.1459344e-07
-5.5013393e-07
-9.9393678e-07
-2.6811422e-07
-1.3092594e-06
-9.3665701e-08
-1.3397055e-06
-1.6329799e-07
-1.200558e-06
-3.3554901e-07
-1.0215326e-06
-5.0465053e-07
-8.792635e-07
-6.2254993e-07
-7.9419917e-07
-6.8814731e-07
-7.5386352e-07
-7.2004507e-07
-7.396478e-07
-7.336656e-07
-7.3749539e-07
-7.3915081e-07
-7.4087584e-07
-7.4265683e-07
-7.4445221e-07
-7.4624976e-07
-7.4804345e-07
-7.4982141e-07
-7.515383e-07
-7.5314363e-07
-7.5716355e-07
-7.5088868e-07
-7.7077816e-07
-7.3665619e-07
-8.0259719e-07
-6.9639433e-07
-8.6805831e-07
-6.1123979e-07
-9.8577942e-07
-4.6878127e-07
-1.1546897e-06
-2.8965277e-07
-1.3270639e-06
-1.5100273e-07
-1.39745e-06
-1.9591276e-07
-1.2124799e-06
-5.0182941e-07
-9.4553919e-07
-1.3835055e-06
-1.1435046e-07
-5.5044131e-07
-9.9382202e-07
-2.6940135e-07
-1.3101477e-06
-9.6124408e-08
-1.3402512e-06
-1.6544095e-07
-1.2011393e-06
-3.3729515e-07
-1.0222048e-06
-5.059786e-07
-8.7997502e-07
-6.2352443e-07
-7.9489422e-07
-6.8882982e-07
-7.5454795e-07
-7.2052909e-07
-7.4021128e-07